# Probe 0 (0 9.95 19.77)
# Probe 1 (0 -9.95 19.77)
# Time        0             1            
0             -1.79769e+307 -1.79769e+307
0.00119048    -1.79769e+307 -1.79769e+307
0.00122837    -1.79769e+307 -1.79769e+307
0.00127071    -1.79769e+307 -1.79769e+307
0.00131834    -1.79769e+307 -1.79769e+307
0.00137184    -1.79769e+307 -1.79769e+307
0.00143143    -1.79769e+307 -1.79769e+307
0.00149769    -1.79769e+307 -1.79769e+307
0.00156871    -1.79769e+307 -1.79769e+307
0.00164253    -1.79769e+307 -1.79769e+307
0.00171917    -1.79769e+307 -1.79769e+307
0.00179858    -1.79769e+307 -1.79769e+307
0.00188083    -1.79769e+307 -1.79769e+307
0.001966      -1.79769e+307 -1.79769e+307
0.00205414    -1.79769e+307 -1.79769e+307
0.00214529    -1.79769e+307 -1.79769e+307
0.00223949    -1.79769e+307 -1.79769e+307
0.00233676    -1.79769e+307 -1.79769e+307
0.00243711    -1.79769e+307 -1.79769e+307
0.0025405     -1.79769e+307 -1.79769e+307
0.00264691    -1.79769e+307 -1.79769e+307
0.00275628    -1.79769e+307 -1.79769e+307
0.00286823    -1.79769e+307 -1.79769e+307
0.0029829     -1.79769e+307 -1.79769e+307
0.00309986    -1.79769e+307 -1.79769e+307
0.0032192     -1.79769e+307 -1.79769e+307
0.00334071    -1.79769e+307 -1.79769e+307
0.00346415    -1.79769e+307 -1.79769e+307
0.00358958    -1.79769e+307 -1.79769e+307
0.00371673    -1.79769e+307 -1.79769e+307
0.00384565    -1.79769e+307 -1.79769e+307
0.0039764     -1.79769e+307 -1.79769e+307
0.00410865    -1.79769e+307 -1.79769e+307
0.00424284    -1.79769e+307 -1.79769e+307
0.00437782    -1.79769e+307 -1.79769e+307
0.0045136     -1.79769e+307 -1.79769e+307
0.00464978    -1.79769e+307 -1.79769e+307
0.00478679    -1.79769e+307 -1.79769e+307
0.00492464    -1.79769e+307 -1.79769e+307
0.00506333    -1.79769e+307 -1.79769e+307
0.00520289    -1.79769e+307 -1.79769e+307
0.00534288    -1.79769e+307 -1.79769e+307
0.00548114    -1.79769e+307 -1.79769e+307
0.00561812    -1.79769e+307 -1.79769e+307
0.00575426    -1.79769e+307 -1.79769e+307
0.00588957    -1.79769e+307 -1.79769e+307
0.00602446    -1.79769e+307 -1.79769e+307
0.00615894    -1.79769e+307 -1.79769e+307
0.00629342    -1.79769e+307 -1.79769e+307
0.00642749    -1.79769e+307 -1.79769e+307
0.00656034    -1.79769e+307 -1.79769e+307
0.00669197    -1.79769e+307 -1.79769e+307
0.00682281    -1.79769e+307 -1.79769e+307
0.00695326    -1.79769e+307 -1.79769e+307
0.0070837     -1.79769e+307 -1.79769e+307
0.00721414    -1.79769e+307 -1.79769e+307
0.00734459    -1.79769e+307 -1.79769e+307
0.00747543    -1.79769e+307 -1.79769e+307
0.00760709    -1.79769e+307 -1.79769e+307
0.00773915    -1.79769e+307 -1.79769e+307
0.00787163    -1.79769e+307 -1.79769e+307
0.00800495    -1.79769e+307 -1.79769e+307
0.00813912    -1.79769e+307 -1.79769e+307
0.00827329    -1.79769e+307 -1.79769e+307
0.00840746    -1.79769e+307 -1.79769e+307
0.0085412     -1.79769e+307 -1.79769e+307
0.00867494    -1.79769e+307 -1.79769e+307
0.00880911    -1.79769e+307 -1.79769e+307
0.00894328    -1.79769e+307 -1.79769e+307
0.00907745    -1.79769e+307 -1.79769e+307
0.00921162    -1.79769e+307 -1.79769e+307
0.00934624    -1.79769e+307 -1.79769e+307
0.0094813     -1.79769e+307 -1.79769e+307
0.00961636    -1.79769e+307 -1.79769e+307
0.00975188    -1.79769e+307 -1.79769e+307
0.00988785    -1.79769e+307 -1.79769e+307
0.0100243     -1.79769e+307 -1.79769e+307
0.0101607     -1.79769e+307 -1.79769e+307
0.0102976     -1.79769e+307 -1.79769e+307
0.010435      -1.79769e+307 -1.79769e+307
0.0105729     -1.79769e+307 -1.79769e+307
0.0107112     -1.79769e+307 -1.79769e+307
0.01085       -1.79769e+307 -1.79769e+307
0.0109899     -1.79769e+307 -1.79769e+307
0.0111302     -1.79769e+307 -1.79769e+307
0.011271      -1.79769e+307 -1.79769e+307
0.0114124     -1.79769e+307 -1.79769e+307
0.0115542     -1.79769e+307 -1.79769e+307
0.0116966     -1.79769e+307 -1.79769e+307
0.0118395     -1.79769e+307 -1.79769e+307
0.011983      -1.79769e+307 -1.79769e+307
0.0121265     -1.79769e+307 -1.79769e+307
0.0122705     -1.79769e+307 -1.79769e+307
0.012415      -1.79769e+307 -1.79769e+307
0.0125596     -1.79769e+307 -1.79769e+307
0.0127047     -1.79769e+307 -1.79769e+307
0.0128504     -1.79769e+307 -1.79769e+307
0.0129961     -1.79769e+307 -1.79769e+307
0.0131418     -1.79769e+307 -1.79769e+307
0.013288      -1.79769e+307 -1.79769e+307
0.0134343     -1.79769e+307 -1.79769e+307
0.0135805     -1.79769e+307 -1.79769e+307
0.0137268     -1.79769e+307 -1.79769e+307
0.0138731     -1.79769e+307 -1.79769e+307
0.0140193     -1.79769e+307 -1.79769e+307
0.0141656     -1.79769e+307 -1.79769e+307
0.0143119     -1.79769e+307 -1.79769e+307
0.0144581     -1.79769e+307 -1.79769e+307
0.0146038     -1.79769e+307 -1.79769e+307
0.0147494     -1.79769e+307 -1.79769e+307
0.0148945     -1.79769e+307 -1.79769e+307
0.0150396     -1.79769e+307 -1.79769e+307
0.015184      -1.79769e+307 -1.79769e+307
0.0153285     -1.79769e+307 -1.79769e+307
0.0154724     -1.79769e+307 -1.79769e+307
0.0156162     -1.79769e+307 -1.79769e+307
0.0157595     -1.79769e+307 -1.79769e+307
0.0159028     -1.79769e+307 -1.79769e+307
0.0160454     -1.79769e+307 -1.79769e+307
0.0161875     -1.79769e+307 -1.79769e+307
0.0163296     -1.79769e+307 -1.79769e+307
0.016471      -1.79769e+307 -1.79769e+307
0.0166125     -1.79769e+307 -1.79769e+307
0.0167534     -1.79769e+307 -1.79769e+307
0.0168943     -1.79769e+307 -1.79769e+307
0.0170345     -1.79769e+307 -1.79769e+307
0.0171748     -1.79769e+307 -1.79769e+307
0.0173145     -1.79769e+307 -1.79769e+307
0.0174542     -1.79769e+307 -1.79769e+307
0.0175933     -1.79769e+307 -1.79769e+307
0.0177324     -1.79769e+307 -1.79769e+307
0.0178708     -1.79769e+307 -1.79769e+307
0.0180093     -1.79769e+307 -1.79769e+307
0.0181472     -1.79769e+307 -1.79769e+307
0.0182851     -1.79769e+307 -1.79769e+307
0.0184224     -1.79769e+307 -1.79769e+307
0.0185597     -1.79769e+307 -1.79769e+307
0.018697      -1.79769e+307 -1.79769e+307
0.0188337     -1.79769e+307 -1.79769e+307
0.0189704     -1.79769e+307 -1.79769e+307
0.0191065     -1.79769e+307 -1.79769e+307
0.0192426     -1.79769e+307 -1.79769e+307
0.0193787     -1.79769e+307 -1.79769e+307
0.0195142     -1.79769e+307 -1.79769e+307
0.0196497     -1.79769e+307 -1.79769e+307
0.0197851     -1.79769e+307 -1.79769e+307
0.0199206     -1.79769e+307 -1.79769e+307
0.0200561     -1.79769e+307 -1.79769e+307
0.0201916     -1.79769e+307 -1.79769e+307
0.0203271     -1.79769e+307 -1.79769e+307
0.0204626     -1.79769e+307 -1.79769e+307
0.0205981     -1.79769e+307 -1.79769e+307
0.0207336     -1.79769e+307 -1.79769e+307
0.0208691     -1.79769e+307 -1.79769e+307
0.0210046     -1.79769e+307 -1.79769e+307
0.0211401     -1.79769e+307 -1.79769e+307
0.0212756     -1.79769e+307 -1.79769e+307
0.0214111     -1.79769e+307 -1.79769e+307
0.0215466     -1.79769e+307 -1.79769e+307
0.021682      -1.79769e+307 -1.79769e+307
0.0218175     -1.79769e+307 -1.79769e+307
0.021953      -1.79769e+307 -1.79769e+307
0.0220885     -1.79769e+307 -1.79769e+307
0.022224      -1.79769e+307 -1.79769e+307
0.0223595     -1.79769e+307 -1.79769e+307
0.022495      -1.79769e+307 -1.79769e+307
0.0226305     -1.79769e+307 -1.79769e+307
0.022766      -1.79769e+307 -1.79769e+307
0.0229015     -1.79769e+307 -1.79769e+307
0.023037      -1.79769e+307 -1.79769e+307
0.0231731     -1.79769e+307 -1.79769e+307
0.0233093     -1.79769e+307 -1.79769e+307
0.0234455     -1.79769e+307 -1.79769e+307
0.0235817     -1.79769e+307 -1.79769e+307
0.0237179     -1.79769e+307 -1.79769e+307
0.023854      -1.79769e+307 -1.79769e+307
0.0239902     -1.79769e+307 -1.79769e+307
0.0241264     -1.79769e+307 -1.79769e+307
0.0242633     -1.79769e+307 -1.79769e+307
0.0244002     -1.79769e+307 -1.79769e+307
0.0245371     -1.79769e+307 -1.79769e+307
0.024674      -1.79769e+307 -1.79769e+307
0.0248109     -1.79769e+307 -1.79769e+307
0.0249478     -1.79769e+307 -1.79769e+307
0.0250847     -1.79769e+307 -1.79769e+307
0.0252216     -1.79769e+307 -1.79769e+307
0.0253585     -1.79769e+307 -1.79769e+307
0.0254954     -1.79769e+307 -1.79769e+307
0.025633      -1.79769e+307 -1.79769e+307
0.0257699     -1.79769e+307 -1.79769e+307
0.0259068     -1.79769e+307 -1.79769e+307
0.0260437     -1.79769e+307 -1.79769e+307
0.0261806     -1.79769e+307 -1.79769e+307
0.0263175     -1.79769e+307 -1.79769e+307
0.0264536     -1.79769e+307 -1.79769e+307
0.0265889     -1.79769e+307 -1.79769e+307
0.0267242     -1.79769e+307 -1.79769e+307
0.0268588     -1.79769e+307 -1.79769e+307
0.0269926     -1.79769e+307 -1.79769e+307
0.0271263     -1.79769e+307 -1.79769e+307
0.0272593     -1.79769e+307 -1.79769e+307
0.0273923     -1.79769e+307 -1.79769e+307
0.0275253     -1.79769e+307 -1.79769e+307
0.0276575     -1.79769e+307 -1.79769e+307
0.0277897     -1.79769e+307 -1.79769e+307
0.0279219     -1.79769e+307 -1.79769e+307
0.0280541     -1.79769e+307 -1.79769e+307
0.0281863     -1.79769e+307 -1.79769e+307
0.0283185     -1.79769e+307 -1.79769e+307
0.0284499     -1.79769e+307 -1.79769e+307
0.0285813     -1.79769e+307 -1.79769e+307
0.0287127     -1.79769e+307 -1.79769e+307
0.0288433     -1.79769e+307 -1.79769e+307
0.0289739     -1.79769e+307 -1.79769e+307
0.0291045     -1.79769e+307 -1.79769e+307
0.0292343     -1.79769e+307 -1.79769e+307
0.0293641     -1.79769e+307 -1.79769e+307
0.0294947     -1.79769e+307 -1.79769e+307
0.0296253     -1.79769e+307 -1.79769e+307
0.0297559     -1.79769e+307 -1.79769e+307
0.0298865     -1.79769e+307 -1.79769e+307
0.0300171     -1.79769e+307 -1.79769e+307
0.0301477     -1.79769e+307 -1.79769e+307
0.0302792     -1.79769e+307 -1.79769e+307
0.0304107     -1.79769e+307 -1.79769e+307
0.030543      -1.79769e+307 -1.79769e+307
0.0306754     -1.79769e+307 -1.79769e+307
0.0308087     -1.79769e+307 -1.79769e+307
0.0309419     -1.79769e+307 -1.79769e+307
0.0310761     -1.79769e+307 -1.79769e+307
0.0312113     -1.79769e+307 -1.79769e+307
0.0313475     -1.79769e+307 -1.79769e+307
0.0314836     -1.79769e+307 -1.79769e+307
0.0316208     -1.79769e+307 -1.79769e+307
0.031759      -1.79769e+307 -1.79769e+307
0.0318982     -1.79769e+307 -1.79769e+307
0.0320374     -1.79769e+307 -1.79769e+307
0.0321767     -1.79769e+307 -1.79769e+307
0.032317      -1.79769e+307 -1.79769e+307
0.0324574     -1.79769e+307 -1.79769e+307
0.0325977     -1.79769e+307 -1.79769e+307
0.0327392     -1.79769e+307 -1.79769e+307
0.0328807     -1.79769e+307 -1.79769e+307
0.0330222     -1.79769e+307 -1.79769e+307
0.0331636     -1.79769e+307 -1.79769e+307
0.0333039     -1.79769e+307 -1.79769e+307
0.0334442     -1.79769e+307 -1.79769e+307
0.0335846     -1.79769e+307 -1.79769e+307
0.0337249     -1.79769e+307 -1.79769e+307
0.0338652     -1.79769e+307 -1.79769e+307
0.0340043     -1.79769e+307 -1.79769e+307
0.0341421     -1.79769e+307 -1.79769e+307
0.0342789     -1.79769e+307 -1.79769e+307
0.0344144     -1.79769e+307 -1.79769e+307
0.0345487     -1.79769e+307 -1.79769e+307
0.0346819     -1.79769e+307 -1.79769e+307
0.0348129     -1.79769e+307 -1.79769e+307
0.0349427     -1.79769e+307 -1.79769e+307
0.0350703     -1.79769e+307 -1.79769e+307
0.0351968     -1.79769e+307 -1.79769e+307
0.0353233     -1.79769e+307 -1.79769e+307
0.0354488     -1.79769e+307 -1.79769e+307
0.0355742     -1.79769e+307 -1.79769e+307
0.0356996     -1.79769e+307 -1.79769e+307
0.0358251     -1.79769e+307 -1.79769e+307
0.0359505     -1.79769e+307 -1.79769e+307
0.0360749     -1.79769e+307 -1.79769e+307
0.0362003     -1.79769e+307 -1.79769e+307
0.0363258     -1.79769e+307 -1.79769e+307
0.0364512     -1.79769e+307 -1.79769e+307
0.0365767     -1.79769e+307 -1.79769e+307
0.0367033     -1.79769e+307 -1.79769e+307
0.0368299     -1.79769e+307 -1.79769e+307
0.0369578     -1.79769e+307 -1.79769e+307
0.0370857     -1.79769e+307 -1.79769e+307
0.0372135     -1.79769e+307 -1.79769e+307
0.0373427     -1.79769e+307 -1.79769e+307
0.0374718     -1.79769e+307 -1.79769e+307
0.037601      -1.79769e+307 -1.79769e+307
0.0377302     -1.79769e+307 -1.79769e+307
0.0378607     -1.79769e+307 -1.79769e+307
0.0379912     -1.79769e+307 -1.79769e+307
0.0381217     -1.79769e+307 -1.79769e+307
0.0382537     -1.79769e+307 -1.79769e+307
0.0383857     -1.79769e+307 -1.79769e+307
0.0385192     -1.79769e+307 -1.79769e+307
0.0386543     -1.79769e+307 -1.79769e+307
0.0387893     -1.79769e+307 -1.79769e+307
0.0389261     -1.79769e+307 -1.79769e+307
0.0390628     -1.79769e+307 -1.79769e+307
0.0392012     -1.79769e+307 -1.79769e+307
0.0393397     -1.79769e+307 -1.79769e+307
0.0394799     -1.79769e+307 -1.79769e+307
0.0396202     -1.79769e+307 -1.79769e+307
0.0397624     -1.79769e+307 -1.79769e+307
0.0399066     -1.79769e+307 -1.79769e+307
0.0400508     -1.79769e+307 -1.79769e+307
0.0401971     -1.79769e+307 -1.79769e+307
0.0403434     -1.79769e+307 -1.79769e+307
0.040492      -1.79769e+307 -1.79769e+307
0.0406405     -1.79769e+307 -1.79769e+307
0.0407891     -1.79769e+307 -1.79769e+307
0.0409401     -1.79769e+307 -1.79769e+307
0.0410911     -1.79769e+307 -1.79769e+307
0.0412421     -1.79769e+307 -1.79769e+307
0.0413931     -1.79769e+307 -1.79769e+307
0.0415468     -1.79769e+307 -1.79769e+307
0.0417005     -1.79769e+307 -1.79769e+307
0.0418542     -1.79769e+307 -1.79769e+307
0.0420079     -1.79769e+307 -1.79769e+307
0.0421616     -1.79769e+307 -1.79769e+307
0.0423183     -1.79769e+307 -1.79769e+307
0.0424751     -1.79769e+307 -1.79769e+307
0.0426319     -1.79769e+307 -1.79769e+307
0.0427886     -1.79769e+307 -1.79769e+307
0.0429454     -1.79769e+307 -1.79769e+307
0.0431022     -1.79769e+307 -1.79769e+307
0.0432589     -1.79769e+307 -1.79769e+307
0.0434157     -1.79769e+307 -1.79769e+307
0.0435725     -1.79769e+307 -1.79769e+307
0.0437332     -1.79769e+307 -1.79769e+307
0.0438939     -1.79769e+307 -1.79769e+307
0.0440504     -1.79769e+307 -1.79769e+307
0.044207      -1.79769e+307 -1.79769e+307
0.0443594     -1.79769e+307 -1.79769e+307
0.0445119     -1.79769e+307 -1.79769e+307
0.0446602     -1.79769e+307 -1.79769e+307
0.0448085     -1.79769e+307 -1.79769e+307
0.0449569     -1.79769e+307 -1.79769e+307
0.0451052     -1.79769e+307 -1.79769e+307
0.0452535     -1.79769e+307 -1.79769e+307
0.0454018     -1.79769e+307 -1.79769e+307
0.0455502     -1.79769e+307 -1.79769e+307
0.0456937     -1.79769e+307 -1.79769e+307
0.0458373     -1.79769e+307 -1.79769e+307
0.0459808     -1.79769e+307 -1.79769e+307
0.0461243     -1.79769e+307 -1.79769e+307
0.0462679     -1.79769e+307 -1.79769e+307
0.0464114     -1.79769e+307 -1.79769e+307
0.046555      -1.79769e+307 -1.79769e+307
0.0466985     -1.79769e+307 -1.79769e+307
0.0468421     -1.79769e+307 -1.79769e+307
0.0469856     -1.79769e+307 -1.79769e+307
0.0471291     -1.79769e+307 -1.79769e+307
0.0472802     -1.79769e+307 -1.79769e+307
0.0474313     -1.79769e+307 -1.79769e+307
0.0475824     -1.79769e+307 -1.79769e+307
0.0477335     -1.79769e+307 -1.79769e+307
0.0478846     -1.79769e+307 -1.79769e+307
0.0480357     -1.79769e+307 -1.79769e+307
0.0481868     -1.79769e+307 -1.79769e+307
0.0483379     -1.79769e+307 -1.79769e+307
0.0484764     -1.79769e+307 -1.79769e+307
0.0486149     -1.79769e+307 -1.79769e+307
0.0487534     -1.79769e+307 -1.79769e+307
0.048892      -1.79769e+307 -1.79769e+307
0.0490305     -1.79769e+307 -1.79769e+307
0.049169      -1.79769e+307 -1.79769e+307
0.0492877     -1.79769e+307 -1.79769e+307
0.0494064     -1.79769e+307 -1.79769e+307
0.0495251     -1.79769e+307 -1.79769e+307
0.0496438     -1.79769e+307 -1.79769e+307
0.0497626     -1.79769e+307 -1.79769e+307
0.0498813     -1.79769e+307 -1.79769e+307
0.05          -1.79769e+307 -1.79769e+307
0.0501229     -1.79769e+307 -1.79769e+307
0.050243      -1.79769e+307 -1.79769e+307
0.0503604     -1.79769e+307 -1.79769e+307
0.0504745     -1.79769e+307 -1.79769e+307
0.0505863     -1.79769e+307 -1.79769e+307
0.0506963     -1.79769e+307 -1.79769e+307
0.0508057     -1.79769e+307 -1.79769e+307
0.0509145     -1.79769e+307 -1.79769e+307
0.0510233     -1.79769e+307 -1.79769e+307
0.0511329     -1.79769e+307 -1.79769e+307
0.0512432     -1.79769e+307 -1.79769e+307
0.0513545     -1.79769e+307 -1.79769e+307
0.0514666     -1.79769e+307 -1.79769e+307
0.0515792     -1.79769e+307 -1.79769e+307
0.0516926     -1.79769e+307 -1.79769e+307
0.0518071     -1.79769e+307 -1.79769e+307
0.0519224     -1.79769e+307 -1.79769e+307
0.0520385     -1.79769e+307 -1.79769e+307
0.0521558     -1.79769e+307 -1.79769e+307
0.0522739     -1.79769e+307 -1.79769e+307
0.0523935     -1.79769e+307 -1.79769e+307
0.0525147     -1.79769e+307 -1.79769e+307
0.0526374     -1.79769e+307 -1.79769e+307
0.052762      -1.79769e+307 -1.79769e+307
0.0528887     -1.79769e+307 -1.79769e+307
0.0530167     -1.79769e+307 -1.79769e+307
0.0531454     -1.79769e+307 -1.79769e+307
0.0532748     -1.79769e+307 -1.79769e+307
0.0534046     -1.79769e+307 -1.79769e+307
0.0535351     -1.79769e+307 -1.79769e+307
0.0536664     -1.79769e+307 -1.79769e+307
0.0537988     -1.79769e+307 -1.79769e+307
0.0539319     -1.79769e+307 -1.79769e+307
0.0540658     -1.79769e+307 -1.79769e+307
0.0542009     -1.79769e+307 -1.79769e+307
0.0543368     -1.79769e+307 -1.79769e+307
0.054474      -1.79769e+307 -1.79769e+307
0.0546119     -1.79769e+307 -1.79769e+307
0.0547512     -1.79769e+307 -1.79769e+307
0.0548917     -1.79769e+307 -1.79769e+307
0.0550331     -1.79769e+307 -1.79769e+307
0.0551758     -1.79769e+307 -1.79769e+307
0.05532       -1.79769e+307 -1.79769e+307
0.0554655     -1.79769e+307 -1.79769e+307
0.0556125     -1.79769e+307 -1.79769e+307
0.0557609     -1.79769e+307 -1.79769e+307
0.0559109     -1.79769e+307 -1.79769e+307
0.0560619     -1.79769e+307 -1.79769e+307
0.0562145     -1.79769e+307 -1.79769e+307
0.0563686     -1.79769e+307 -1.79769e+307
0.0565245     -1.79769e+307 -1.79769e+307
0.056682      -1.79769e+307 -1.79769e+307
0.0568412     -1.79769e+307 -1.79769e+307
0.0570017     -1.79769e+307 -1.79769e+307
0.0571639     -1.79769e+307 -1.79769e+307
0.0573281     -1.79769e+307 -1.79769e+307
0.0574922     -1.79769e+307 -1.79769e+307
0.0576557     -1.79769e+307 -1.79769e+307
0.0578192     -1.79769e+307 -1.79769e+307
0.057982      -1.79769e+307 -1.79769e+307
0.0581443     -1.79769e+307 -1.79769e+307
0.0583059     -1.79769e+307 -1.79769e+307
0.0584675     -1.79769e+307 -1.79769e+307
0.0586284     -1.79769e+307 -1.79769e+307
0.0587894     -1.79769e+307 -1.79769e+307
0.0589498     -1.79769e+307 -1.79769e+307
0.0591101     -1.79769e+307 -1.79769e+307
0.0592699     -1.79769e+307 -1.79769e+307
0.0594296     -1.79769e+307 -1.79769e+307
0.0595893     -1.79769e+307 -1.79769e+307
0.0597484     -1.79769e+307 -1.79769e+307
0.0599075     -1.79769e+307 -1.79769e+307
0.060066      -1.79769e+307 -1.79769e+307
0.0602244     -1.79769e+307 -1.79769e+307
0.0603829     -1.79769e+307 -1.79769e+307
0.0605414     -1.79769e+307 -1.79769e+307
0.0606992     -1.79769e+307 -1.79769e+307
0.060857      -1.79769e+307 -1.79769e+307
0.0610149     -1.79769e+307 -1.79769e+307
0.0611721     -1.79769e+307 -1.79769e+307
0.0613293     -1.79769e+307 -1.79769e+307
0.0614871     -1.79769e+307 -1.79769e+307
0.0616456     -1.79769e+307 -1.79769e+307
0.0618041     -1.79769e+307 -1.79769e+307
0.0619632     -1.79769e+307 -1.79769e+307
0.0621231     -1.79769e+307 -1.79769e+307
0.0622829     -1.79769e+307 -1.79769e+307
0.0624427     -1.79769e+307 -1.79769e+307
0.0626025     -1.79769e+307 -1.79769e+307
0.062763      -1.79769e+307 -1.79769e+307
0.0629235     -1.79769e+307 -1.79769e+307
0.063084      -1.79769e+307 -1.79769e+307
0.0632445     -1.79769e+307 -1.79769e+307
0.063405      -1.79769e+307 -1.79769e+307
0.0635655     -1.79769e+307 -1.79769e+307
0.063726      -1.79769e+307 -1.79769e+307
0.0638873     -1.79769e+307 -1.79769e+307
0.0640485     -1.79769e+307 -1.79769e+307
0.0642097     -1.79769e+307 -1.79769e+307
0.0643709     -1.79769e+307 -1.79769e+307
0.0645321     -1.79769e+307 -1.79769e+307
0.0646933     -1.79769e+307 -1.79769e+307
0.0648546     -1.79769e+307 -1.79769e+307
0.0650158     -1.79769e+307 -1.79769e+307
0.065177      -1.79769e+307 -1.79769e+307
0.0653382     -1.79769e+307 -1.79769e+307
0.0654994     -1.79769e+307 -1.79769e+307
0.0656614     -1.79769e+307 -1.79769e+307
0.0658234     -1.79769e+307 -1.79769e+307
0.0659854     -1.79769e+307 -1.79769e+307
0.0661473     -1.79769e+307 -1.79769e+307
0.0663093     -1.79769e+307 -1.79769e+307
0.0664713     -1.79769e+307 -1.79769e+307
0.0666333     -1.79769e+307 -1.79769e+307
0.0667944     -1.79769e+307 -1.79769e+307
0.0669556     -1.79769e+307 -1.79769e+307
0.0671161     -1.79769e+307 -1.79769e+307
0.0672765     -1.79769e+307 -1.79769e+307
0.0674361     -1.79769e+307 -1.79769e+307
0.0675957     -1.79769e+307 -1.79769e+307
0.0677546     -1.79769e+307 -1.79769e+307
0.0679134     -1.79769e+307 -1.79769e+307
0.0680715     -1.79769e+307 -1.79769e+307
0.0682295     -1.79769e+307 -1.79769e+307
0.0683853     -1.79769e+307 -1.79769e+307
0.068538      -1.79769e+307 -1.79769e+307
0.0686885     -1.79769e+307 -1.79769e+307
0.0688369     -1.79769e+307 -1.79769e+307
0.0689839     -1.79769e+307 -1.79769e+307
0.0691323     -1.79769e+307 -1.79769e+307
0.0692882     -1.79769e+307 -1.79769e+307
0.0694433     -1.79769e+307 -1.79769e+307
0.0695984     -1.79769e+307 -1.79769e+307
0.0697528     -1.79769e+307 -1.79769e+307
0.0699071     -1.79769e+307 -1.79769e+307
0.0700606     -1.79769e+307 -1.79769e+307
0.0702142     -1.79769e+307 -1.79769e+307
0.0703669     -1.79769e+307 -1.79769e+307
0.0705197     -1.79769e+307 -1.79769e+307
0.0706716     -1.79769e+307 -1.79769e+307
0.0708236     -1.79769e+307 -1.79769e+307
0.0709747     -1.79769e+307 -1.79769e+307
0.0711251     -1.79769e+307 -1.79769e+307
0.0712755     -1.79769e+307 -1.79769e+307
0.0714251     -1.79769e+307 -1.79769e+307
0.071574      -1.79769e+307 -1.79769e+307
0.0717228     -1.79769e+307 -1.79769e+307
0.0718708     -1.79769e+307 -1.79769e+307
0.0720181     -1.79769e+307 -1.79769e+307
0.0721654     -1.79769e+307 -1.79769e+307
0.0723119     -1.79769e+307 -1.79769e+307
0.0724576     -1.79769e+307 -1.79769e+307
0.0726026     -1.79769e+307 -1.79769e+307
0.0727468     -1.79769e+307 -1.79769e+307
0.0728902     -1.79769e+307 -1.79769e+307
0.0730329     -1.79769e+307 -1.79769e+307
0.0731741     -1.79769e+307 -1.79769e+307
0.0733145     -1.79769e+307 -1.79769e+307
0.0734542     -1.79769e+307 -1.79769e+307
0.0735932     -1.79769e+307 -1.79769e+307
0.0737308     -1.79769e+307 -1.79769e+307
0.0738676     -1.79769e+307 -1.79769e+307
0.0740037     -1.79769e+307 -1.79769e+307
0.0741384     -1.79769e+307 -1.79769e+307
0.0742724     -1.79769e+307 -1.79769e+307
0.0744057     -1.79769e+307 -1.79769e+307
0.0745383     -1.79769e+307 -1.79769e+307
0.0746695     -1.79769e+307 -1.79769e+307
0.0748001     -1.79769e+307 -1.79769e+307
0.07493       -1.79769e+307 -1.79769e+307
0.0750592     -1.79769e+307 -1.79769e+307
0.0751878     -1.79769e+307 -1.79769e+307
0.0753157     -1.79769e+307 -1.79769e+307
0.0754429     -1.79769e+307 -1.79769e+307
0.0755695     -1.79769e+307 -1.79769e+307
0.0756954     -1.79769e+307 -1.79769e+307
0.0758207     -1.79769e+307 -1.79769e+307
0.0759454     -1.79769e+307 -1.79769e+307
0.0760694     -1.79769e+307 -1.79769e+307
0.0761927     -1.79769e+307 -1.79769e+307
0.0763154     -1.79769e+307 -1.79769e+307
0.0764375     -1.79769e+307 -1.79769e+307
0.0765596     -1.79769e+307 -1.79769e+307
0.076681      -1.79769e+307 -1.79769e+307
0.0768019     -1.79769e+307 -1.79769e+307
0.0769221     -1.79769e+307 -1.79769e+307
0.0770423     -1.79769e+307 -1.79769e+307
0.0771618     -1.79769e+307 -1.79769e+307
0.0772808     -1.79769e+307 -1.79769e+307
0.0773997     -1.79769e+307 -1.79769e+307
0.0775181     -1.79769e+307 -1.79769e+307
0.0776358     -1.79769e+307 -1.79769e+307
0.0777535     -1.79769e+307 -1.79769e+307
0.0778706     -1.79769e+307 -1.79769e+307
0.0779876     -1.79769e+307 -1.79769e+307
0.0781047     -1.79769e+307 -1.79769e+307
0.0782218     -1.79769e+307 -1.79769e+307
0.0783383     -1.79769e+307 -1.79769e+307
0.0784547     -1.79769e+307 -1.79769e+307
0.0785712     -1.79769e+307 -1.79769e+307
0.0786877     -1.79769e+307 -1.79769e+307
0.0788041     -1.79769e+307 -1.79769e+307
0.0789206     -1.79769e+307 -1.79769e+307
0.079037      -1.79769e+307 -1.79769e+307
0.0791535     -1.79769e+307 -1.79769e+307
0.07927       -1.79769e+307 -1.79769e+307
0.0793864     -1.79769e+307 -1.79769e+307
0.0795036     -1.79769e+307 -1.79769e+307
0.0796207     -1.79769e+307 -1.79769e+307
0.0797378     -1.79769e+307 -1.79769e+307
0.0798549     -1.79769e+307 -1.79769e+307
0.079972      -1.79769e+307 -1.79769e+307
0.0800899     -1.79769e+307 -1.79769e+307
0.0802077     -1.79769e+307 -1.79769e+307
0.0803255     -1.79769e+307 -1.79769e+307
0.0804433     -1.79769e+307 -1.79769e+307
0.0805618     -1.79769e+307 -1.79769e+307
0.0806803     -1.79769e+307 -1.79769e+307
0.0807996     -1.79769e+307 -1.79769e+307
0.0809189     -1.79769e+307 -1.79769e+307
0.0810389     -1.79769e+307 -1.79769e+307
0.0811589     -1.79769e+307 -1.79769e+307
0.0812796     -1.79769e+307 -1.79769e+307
0.0814004     -1.79769e+307 -1.79769e+307
0.081522      -1.79769e+307 -1.79769e+307
0.0816436     -1.79769e+307 -1.79769e+307
0.0817651     -1.79769e+307 -1.79769e+307
0.0818875     -1.79769e+307 -1.79769e+307
0.0820099     -1.79769e+307 -1.79769e+307
0.0821323     -1.79769e+307 -1.79769e+307
0.0822555     -1.79769e+307 -1.79769e+307
0.0823787     -1.79769e+307 -1.79769e+307
0.0825028     -1.79769e+307 -1.79769e+307
0.0826269     -1.79769e+307 -1.79769e+307
0.082751      -1.79769e+307 -1.79769e+307
0.082876      -1.79769e+307 -1.79769e+307
0.083001      -1.79769e+307 -1.79769e+307
0.0831269     -1.79769e+307 -1.79769e+307
0.0832528     -1.79769e+307 -1.79769e+307
0.0833797     -1.79769e+307 -1.79769e+307
0.0835066     -1.79769e+307 -1.79769e+307
0.0836344     -1.79769e+307 -1.79769e+307
0.0837623     -1.79769e+307 -1.79769e+307
0.0838911     -1.79769e+307 -1.79769e+307
0.0840211     -1.79769e+307 -1.79769e+307
0.084151      -1.79769e+307 -1.79769e+307
0.084282      -1.79769e+307 -1.79769e+307
0.084414      -1.79769e+307 -1.79769e+307
0.0845461     -1.79769e+307 -1.79769e+307
0.0846793     -1.79769e+307 -1.79769e+307
0.0848126     -1.79769e+307 -1.79769e+307
0.084947      -1.79769e+307 -1.79769e+307
0.0850826     -1.79769e+307 -1.79769e+307
0.0852194     -1.79769e+307 -1.79769e+307
0.0853563     -1.79769e+307 -1.79769e+307
0.0854944     -1.79769e+307 -1.79769e+307
0.0856339     -1.79769e+307 -1.79769e+307
0.0857734     -1.79769e+307 -1.79769e+307
0.0859143     -1.79769e+307 -1.79769e+307
0.0860565     -1.79769e+307 -1.79769e+307
0.0862003     -1.79769e+307 -1.79769e+307
0.086344      -1.79769e+307 -1.79769e+307
0.0864893     -1.79769e+307 -1.79769e+307
0.0866362     -1.79769e+307 -1.79769e+307
0.0867846     -1.79769e+307 -1.79769e+307
0.0869348     -1.79769e+307 -1.79769e+307
0.0870867     -1.79769e+307 -1.79769e+307
0.0872405     -1.79769e+307 -1.79769e+307
0.0873961     -1.79769e+307 -1.79769e+307
0.0875536     -1.79769e+307 -1.79769e+307
0.0877132     -1.79769e+307 -1.79769e+307
0.0878749     -1.79769e+307 -1.79769e+307
0.088041      -1.79769e+307 -1.79769e+307
0.0882094     -1.79769e+307 -1.79769e+307
0.0883803     -1.79769e+307 -1.79769e+307
0.0885537     -1.79769e+307 -1.79769e+307
0.0887271     -1.79769e+307 -1.79769e+307
0.0889033     -1.79769e+307 -1.79769e+307
0.0890823     -1.79769e+307 -1.79769e+307
0.0892612     -1.79769e+307 -1.79769e+307
0.0894432     -1.79769e+307 -1.79769e+307
0.0896253     -1.79769e+307 -1.79769e+307
0.0898105     -1.79769e+307 -1.79769e+307
0.0899958     -1.79769e+307 -1.79769e+307
0.090181      -1.79769e+307 -1.79769e+307
0.0903663     -1.79769e+307 -1.79769e+307
0.0905516     -1.79769e+307 -1.79769e+307
0.0907368     -1.79769e+307 -1.79769e+307
0.0909221     -1.79769e+307 -1.79769e+307
0.0911074     -1.79769e+307 -1.79769e+307
0.0912926     -1.79769e+307 -1.79769e+307
0.0914779     -1.79769e+307 -1.79769e+307
0.0916632     -1.79769e+307 -1.79769e+307
0.0918444     -1.79769e+307 -1.79769e+307
0.0920217     -1.79769e+307 -1.79769e+307
0.092199      -1.79769e+307 -1.79769e+307
0.0923723     -1.79769e+307 -1.79769e+307
0.0925457     -1.79769e+307 -1.79769e+307
0.092719      -1.79769e+307 -1.79769e+307
0.0928884     -1.79769e+307 -1.79769e+307
0.0930577     -1.79769e+307 -1.79769e+307
0.0932313     -1.79769e+307 -1.79769e+307
0.0934048     -1.79769e+307 -1.79769e+307
0.0935784     -1.79769e+307 -1.79769e+307
0.0937519     -1.79769e+307 -1.79769e+307
0.0939255     -1.79769e+307 -1.79769e+307
0.094099      -1.79769e+307 -1.79769e+307
0.0942726     -1.79769e+307 -1.79769e+307
0.0944462     -1.79769e+307 -1.79769e+307
0.0946197     -1.79769e+307 -1.79769e+307
0.0947878     -1.79769e+307 -1.79769e+307
0.094956      -1.79769e+307 -1.79769e+307
0.0951241     -1.79769e+307 -1.79769e+307
0.0952923     -1.79769e+307 -1.79769e+307
0.0954604     -1.79769e+307 -1.79769e+307
0.0956285     -1.79769e+307 -1.79769e+307
0.0957967     -1.79769e+307 -1.79769e+307
0.0959648     -1.79769e+307 -1.79769e+307
0.0961329     -1.79769e+307 -1.79769e+307
0.0963011     -1.79769e+307 -1.79769e+307
0.0964692     -1.79769e+307 -1.79769e+307
0.0966373     -1.79769e+307 -1.79769e+307
0.0968055     -1.79769e+307 -1.79769e+307
0.0969736     -1.79769e+307 -1.79769e+307
0.0971417     -1.79769e+307 -1.79769e+307
0.0973099     -1.79769e+307 -1.79769e+307
0.097478      -1.79769e+307 -1.79769e+307
0.0976461     -1.79769e+307 -1.79769e+307
0.0978143     -1.79769e+307 -1.79769e+307
0.0979824     -1.79769e+307 -1.79769e+307
0.0981505     -1.79769e+307 -1.79769e+307
0.0983187     -1.79769e+307 -1.79769e+307
0.0984868     -1.79769e+307 -1.79769e+307
0.0986549     -1.79769e+307 -1.79769e+307
0.0988231     -1.79769e+307 -1.79769e+307
0.0989912     -1.79769e+307 -1.79769e+307
0.0991593     -1.79769e+307 -1.79769e+307
0.0993275     -1.79769e+307 -1.79769e+307
0.0994956     -1.79769e+307 -1.79769e+307
0.0996637     -1.79769e+307 -1.79769e+307
0.0998319     -1.79769e+307 -1.79769e+307
0.1           -1.79769e+307 -1.79769e+307
0.100182      -1.79769e+307 -1.79769e+307
0.100364      -1.79769e+307 -1.79769e+307
0.100545      -1.79769e+307 -1.79769e+307
0.100726      -1.79769e+307 -1.79769e+307
0.100906      -1.79769e+307 -1.79769e+307