# Probe 0 (0 9.95 19.77)
# Probe 1 (0 -9.95 19.77)
# Time        0             1            
0             -1.79769e+307 -1.79769e+307
0.00119048    -1.79769e+307 -1.79769e+307
0.0011951     -1.79769e+307 -1.79769e+307
0.00120065    -1.79769e+307 -1.79769e+307
0.00120731    -1.79769e+307 -1.79769e+307
0.00121531    -1.79769e+307 -1.79769e+307
0.00122474    -1.79769e+307 -1.79769e+307
0.00123476    -1.79769e+307 -1.79769e+307
0.00124542    -1.79769e+307 -1.79769e+307
0.0012568     -1.79769e+307 -1.79769e+307
0.00126901    -1.79769e+307 -1.79769e+307
0.00128204    -1.79769e+307 -1.79769e+307
0.00129576    -1.79769e+307 -1.79769e+307
0.00131025    -1.79769e+307 -1.79769e+307
0.00132559    -1.79769e+307 -1.79769e+307
0.00134185    -1.79769e+307 -1.79769e+307
0.00135914    -1.79769e+307 -1.79769e+307
0.00137683    -1.79769e+307 -1.79769e+307
0.00139439    -1.79769e+307 -1.79769e+307
0.00141193    -1.79769e+307 -1.79769e+307
0.0014295     -1.79769e+307 -1.79769e+307
0.00144715    -1.79769e+307 -1.79769e+307
0.00146491    -1.79769e+307 -1.79769e+307
0.00148279    -1.79769e+307 -1.79769e+307
0.00150084    -1.79769e+307 -1.79769e+307
0.00151907    -1.79769e+307 -1.79769e+307
0.00153751    -1.79769e+307 -1.79769e+307
0.00155607    -1.79769e+307 -1.79769e+307
0.00157473    -1.79769e+307 -1.79769e+307
0.00159352    -1.79769e+307 -1.79769e+307
0.00161242    -1.79769e+307 -1.79769e+307
0.00163136    -1.79769e+307 -1.79769e+307
0.00165037    -1.79769e+307 -1.79769e+307
0.00166947    -1.79769e+307 -1.79769e+307
0.00168869    -1.79769e+307 -1.79769e+307
0.00170803    -1.79769e+307 -1.79769e+307
0.00172751    -1.79769e+307 -1.79769e+307
0.00174714    -1.79769e+307 -1.79769e+307
0.00176693    -1.79769e+307 -1.79769e+307
0.00178687    -1.79769e+307 -1.79769e+307
0.00180697    -1.79769e+307 -1.79769e+307
0.00182725    -1.79769e+307 -1.79769e+307
0.00184769    -1.79769e+307 -1.79769e+307
0.00186833    -1.79769e+307 -1.79769e+307
0.00188918    -1.79769e+307 -1.79769e+307
0.00191025    -1.79769e+307 -1.79769e+307
0.00193158    -1.79769e+307 -1.79769e+307
0.00195317    -1.79769e+307 -1.79769e+307
0.00197506    -1.79769e+307 -1.79769e+307
0.00199726    -1.79769e+307 -1.79769e+307
0.00201981    -1.79769e+307 -1.79769e+307
0.00204271    -1.79769e+307 -1.79769e+307
0.00206599    -1.79769e+307 -1.79769e+307
0.00208968    -1.79769e+307 -1.79769e+307
0.00211378    -1.79769e+307 -1.79769e+307
0.00213831    -1.79769e+307 -1.79769e+307
0.00216329    -1.79769e+307 -1.79769e+307
0.00218875    -1.79769e+307 -1.79769e+307
0.00221469    -1.79769e+307 -1.79769e+307
0.00224113    -1.79769e+307 -1.79769e+307
0.0022681     -1.79769e+307 -1.79769e+307
0.00229558    -1.79769e+307 -1.79769e+307
0.00232359    -1.79769e+307 -1.79769e+307
0.00235184    -1.79769e+307 -1.79769e+307
0.00237991    -1.79769e+307 -1.79769e+307
0.00240801    -1.79769e+307 -1.79769e+307
0.00243625    -1.79769e+307 -1.79769e+307
0.00246473    -1.79769e+307 -1.79769e+307
0.00249354    -1.79769e+307 -1.79769e+307
0.00252278    -1.79769e+307 -1.79769e+307
0.00255256    -1.79769e+307 -1.79769e+307
0.00258298    -1.79769e+307 -1.79769e+307
0.00261411    -1.79769e+307 -1.79769e+307
0.00264606    -1.79769e+307 -1.79769e+307
0.00267888    -1.79769e+307 -1.79769e+307
0.00271268    -1.79769e+307 -1.79769e+307
0.0027475     -1.79769e+307 -1.79769e+307
0.00278341    -1.79769e+307 -1.79769e+307
0.00282024    -1.79769e+307 -1.79769e+307
0.00285771    -1.79769e+307 -1.79769e+307
0.00289582    -1.79769e+307 -1.79769e+307
0.00293459    -1.79769e+307 -1.79769e+307
0.00297404    -1.79769e+307 -1.79769e+307
0.0030142     -1.79769e+307 -1.79769e+307
0.00305506    -1.79769e+307 -1.79769e+307
0.00309664    -1.79769e+307 -1.79769e+307
0.00313901    -1.79769e+307 -1.79769e+307
0.00318216    -1.79769e+307 -1.79769e+307
0.00322616    -1.79769e+307 -1.79769e+307
0.00327105    -1.79769e+307 -1.79769e+307
0.00331686    -1.79769e+307 -1.79769e+307
0.00336369    -1.79769e+307 -1.79769e+307
0.00341147    -1.79769e+307 -1.79769e+307
0.00345975    -1.79769e+307 -1.79769e+307
0.00350848    -1.79769e+307 -1.79769e+307
0.00355758    -1.79769e+307 -1.79769e+307
0.00360688    -1.79769e+307 -1.79769e+307
0.00365639    -1.79769e+307 -1.79769e+307
0.00370617    -1.79769e+307 -1.79769e+307
0.00375616    -1.79769e+307 -1.79769e+307
0.00380648    -1.79769e+307 -1.79769e+307
0.00385708    -1.79769e+307 -1.79769e+307
0.00390801    -1.79769e+307 -1.79769e+307
0.00395928    -1.79769e+307 -1.79769e+307
0.00401089    -1.79769e+307 -1.79769e+307
0.00406286    -1.79769e+307 -1.79769e+307
0.00411524    -1.79769e+307 -1.79769e+307
0.00416804    -1.79769e+307 -1.79769e+307
0.00422121    -1.79769e+307 -1.79769e+307
0.00427481    -1.79769e+307 -1.79769e+307
0.00432886    -1.79769e+307 -1.79769e+307
0.0043833     -1.79769e+307 -1.79769e+307
0.00443813    -1.79769e+307 -1.79769e+307
0.00449335    -1.79769e+307 -1.79769e+307
0.00454905    -1.79769e+307 -1.79769e+307
0.00460516    -1.79769e+307 -1.79769e+307
0.0046617     -1.79769e+307 -1.79769e+307
0.00471872    -1.79769e+307 -1.79769e+307
0.00477619    -1.79769e+307 -1.79769e+307
0.00483409    -1.79769e+307 -1.79769e+307
0.00489252    -1.79769e+307 -1.79769e+307
0.00495141    -1.79769e+307 -1.79769e+307
0.00501084    -1.79769e+307 -1.79769e+307
0.00507075    -1.79769e+307 -1.79769e+307
0.00513122    -1.79769e+307 -1.79769e+307
0.00519226    -1.79769e+307 -1.79769e+307
0.00525381    -1.79769e+307 -1.79769e+307
0.00531596    -1.79769e+307 -1.79769e+307
0.00537872    -1.79769e+307 -1.79769e+307
0.00544201    -1.79769e+307 -1.79769e+307
0.00550594    -1.79769e+307 -1.79769e+307
0.00557042    -1.79769e+307 -1.79769e+307
0.00563557    -1.79769e+307 -1.79769e+307
0.00570129    -1.79769e+307 -1.79769e+307
0.00576761    -1.79769e+307 -1.79769e+307
0.00583443    -1.79769e+307 -1.79769e+307
0.00590074    -1.79769e+307 -1.79769e+307
0.00596666    -1.79769e+307 -1.79769e+307
0.00603218    -1.79769e+307 -1.79769e+307
0.00609732    -1.79769e+307 -1.79769e+307
0.00616217    -1.79769e+307 -1.79769e+307
0.00622683    -1.79769e+307 -1.79769e+307
0.00629129    -1.79769e+307 -1.79769e+307
0.00635557    -1.79769e+307 -1.79769e+307
0.00641976    -1.79769e+307 -1.79769e+307
0.00648384    -1.79769e+307 -1.79769e+307
0.00654784    -1.79769e+307 -1.79769e+307
0.00661174    -1.79769e+307 -1.79769e+307
0.00667554    -1.79769e+307 -1.79769e+307
0.00673926    -1.79769e+307 -1.79769e+307
0.00680297    -1.79769e+307 -1.79769e+307
0.00686659    -1.79769e+307 -1.79769e+307
0.00693011    -1.79769e+307 -1.79769e+307
0.00699364    -1.79769e+307 -1.79769e+307
0.00705707    -1.79769e+307 -1.79769e+307
0.00712041    -1.79769e+307 -1.79769e+307
0.00718374    -1.79769e+307 -1.79769e+307
0.00724699    -1.79769e+307 -1.79769e+307
0.00731014    -1.79769e+307 -1.79769e+307
0.00737329    -1.79769e+307 -1.79769e+307
0.00743635    -1.79769e+307 -1.79769e+307
0.0074994     -1.79769e+307 -1.79769e+307
0.00756237    -1.79769e+307 -1.79769e+307
0.00762533    -1.79769e+307 -1.79769e+307
0.0076883     -1.79769e+307 -1.79769e+307
0.00775126    -1.79769e+307 -1.79769e+307
0.00781422    -1.79769e+307 -1.79769e+307
0.00787728    -1.79769e+307 -1.79769e+307
0.00794043    -1.79769e+307 -1.79769e+307
0.00800368    -1.79769e+307 -1.79769e+307
0.00806702    -1.79769e+307 -1.79769e+307
0.00813056    -1.79769e+307 -1.79769e+307
0.00819419    -1.79769e+307 -1.79769e+307
0.00825802    -1.79769e+307 -1.79769e+307
0.00832194    -1.79769e+307 -1.79769e+307
0.00838596    -1.79769e+307 -1.79769e+307
0.00845018    -1.79769e+307 -1.79769e+307
0.0085145     -1.79769e+307 -1.79769e+307
0.00857892    -1.79769e+307 -1.79769e+307
0.00864334    -1.79769e+307 -1.79769e+307
0.00870786    -1.79769e+307 -1.79769e+307
0.00877248    -1.79769e+307 -1.79769e+307
0.0088372     -1.79769e+307 -1.79769e+307
0.00890202    -1.79769e+307 -1.79769e+307
0.00896695    -1.79769e+307 -1.79769e+307
0.00903197    -1.79769e+307 -1.79769e+307
0.00909711    -1.79769e+307 -1.79769e+307
0.00916234    -1.79769e+307 -1.79769e+307
0.00922768    -1.79769e+307 -1.79769e+307
0.00929313    -1.79769e+307 -1.79769e+307
0.00935878    -1.79769e+307 -1.79769e+307
0.00942455    -1.79769e+307 -1.79769e+307
0.00949042    -1.79769e+307 -1.79769e+307
0.00955639    -1.79769e+307 -1.79769e+307
0.00962258    -1.79769e+307 -1.79769e+307
0.00968889    -1.79769e+307 -1.79769e+307
0.00975541    -1.79769e+307 -1.79769e+307
0.00982215    -1.79769e+307 -1.79769e+307
0.009889      -1.79769e+307 -1.79769e+307
0.00995607    -1.79769e+307 -1.79769e+307
0.0100235     -1.79769e+307 -1.79769e+307
0.0100911     -1.79769e+307 -1.79769e+307
0.010159      -1.79769e+307 -1.79769e+307
0.0102271     -1.79769e+307 -1.79769e+307
0.0102956     -1.79769e+307 -1.79769e+307
0.0103644     -1.79769e+307 -1.79769e+307
0.0104334     -1.79769e+307 -1.79769e+307
0.0105028     -1.79769e+307 -1.79769e+307
0.0105726     -1.79769e+307 -1.79769e+307
0.0106428     -1.79769e+307 -1.79769e+307
0.0107133     -1.79769e+307 -1.79769e+307
0.0107844     -1.79769e+307 -1.79769e+307
0.0108558     -1.79769e+307 -1.79769e+307
0.0109276     -1.79769e+307 -1.79769e+307
0.0109998     -1.79769e+307 -1.79769e+307
0.0110725     -1.79769e+307 -1.79769e+307
0.0111455     -1.79769e+307 -1.79769e+307
0.0112191     -1.79769e+307 -1.79769e+307
0.0112931     -1.79769e+307 -1.79769e+307
0.0113675     -1.79769e+307 -1.79769e+307
0.0114424     -1.79769e+307 -1.79769e+307
0.0115177     -1.79769e+307 -1.79769e+307
0.0115935     -1.79769e+307 -1.79769e+307
0.0116697     -1.79769e+307 -1.79769e+307
0.0117463     -1.79769e+307 -1.79769e+307
0.0118234     -1.79769e+307 -1.79769e+307
0.011901      -1.79769e+307 -1.79769e+307
0.0119793     -1.79769e+307 -1.79769e+307
0.012058      -1.79769e+307 -1.79769e+307
0.0121372     -1.79769e+307 -1.79769e+307
0.0122169     -1.79769e+307 -1.79769e+307
0.0122971     -1.79769e+307 -1.79769e+307
0.0123779     -1.79769e+307 -1.79769e+307
0.0124591     -1.79769e+307 -1.79769e+307
0.0125409     -1.79769e+307 -1.79769e+307
0.0126232     -1.79769e+307 -1.79769e+307
0.0127059     -1.79769e+307 -1.79769e+307
0.0127892     -1.79769e+307 -1.79769e+307
0.012873      -1.79769e+307 -1.79769e+307
0.0129574     -1.79769e+307 -1.79769e+307
0.0130423     -1.79769e+307 -1.79769e+307
0.0131279     -1.79769e+307 -1.79769e+307
0.013214      -1.79769e+307 -1.79769e+307
0.0133008     -1.79769e+307 -1.79769e+307
0.013388      -1.79769e+307 -1.79769e+307
0.0134758     -1.79769e+307 -1.79769e+307
0.0135642     -1.79769e+307 -1.79769e+307
0.0136533     -1.79769e+307 -1.79769e+307
0.013743      -1.79769e+307 -1.79769e+307
0.0138332     -1.79769e+307 -1.79769e+307
0.0139241     -1.79769e+307 -1.79769e+307
0.0140156     -1.79769e+307 -1.79769e+307
0.0141077     -1.79769e+307 -1.79769e+307
0.0142004     -1.79769e+307 -1.79769e+307
0.0142939     -1.79769e+307 -1.79769e+307
0.0143879     -1.79769e+307 -1.79769e+307
0.0144826     -1.79769e+307 -1.79769e+307
0.0145778     -1.79769e+307 -1.79769e+307
0.0146733     -1.79769e+307 -1.79769e+307
0.0147693     -1.79769e+307 -1.79769e+307
0.0148655     -1.79769e+307 -1.79769e+307
0.0149623     -1.79769e+307 -1.79769e+307
0.0150594     -1.79769e+307 -1.79769e+307
0.015157      -1.79769e+307 -1.79769e+307
0.0152548     -1.79769e+307 -1.79769e+307
0.0153533     -1.79769e+307 -1.79769e+307
0.015452      -1.79769e+307 -1.79769e+307
0.0155513     -1.79769e+307 -1.79769e+307
0.0156508     -1.79769e+307 -1.79769e+307
0.015751      -1.79769e+307 -1.79769e+307
0.0158517     -1.79769e+307 -1.79769e+307
0.015953      -1.79769e+307 -1.79769e+307
0.016055      -1.79769e+307 -1.79769e+307
0.0161575     -1.79769e+307 -1.79769e+307
0.0162607     -1.79769e+307 -1.79769e+307
0.0163645     -1.79769e+307 -1.79769e+307
0.016469      -1.79769e+307 -1.79769e+307
0.0165741     -1.79769e+307 -1.79769e+307
0.0166799     -1.79769e+307 -1.79769e+307
0.0167863     -1.79769e+307 -1.79769e+307
0.0168931     -1.79769e+307 -1.79769e+307
0.0170006     -1.79769e+307 -1.79769e+307
0.0171088     -1.79769e+307 -1.79769e+307
0.0172181     -1.79769e+307 -1.79769e+307
0.0173281     -1.79769e+307 -1.79769e+307
0.0174392     -1.79769e+307 -1.79769e+307
0.0175511     -1.79769e+307 -1.79769e+307
0.0176642     -1.79769e+307 -1.79769e+307
0.017778      -1.79769e+307 -1.79769e+307
0.0178927     -1.79769e+307 -1.79769e+307
0.0180086     -1.79769e+307 -1.79769e+307
0.0181254     -1.79769e+307 -1.79769e+307
0.018243      -1.79769e+307 -1.79769e+307
0.0183615     -1.79769e+307 -1.79769e+307
0.0184809     -1.79769e+307 -1.79769e+307
0.0186012     -1.79769e+307 -1.79769e+307
0.0187219     -1.79769e+307 -1.79769e+307
0.0188436     -1.79769e+307 -1.79769e+307
0.0189663     -1.79769e+307 -1.79769e+307
0.0190894     -1.79769e+307 -1.79769e+307
0.0192136     -1.79769e+307 -1.79769e+307
0.0193387     -1.79769e+307 -1.79769e+307
0.0194644     -1.79769e+307 -1.79769e+307
0.0195906     -1.79769e+307 -1.79769e+307
0.0197167     -1.79769e+307 -1.79769e+307
0.0198435     -1.79769e+307 -1.79769e+307
0.0199702     -1.79769e+307 -1.79769e+307
0.0200974     -1.79769e+307 -1.79769e+307
0.0202252     -1.79769e+307 -1.79769e+307
0.0203535     -1.79769e+307 -1.79769e+307
0.0204824     -1.79769e+307 -1.79769e+307
0.0206119     -1.79769e+307 -1.79769e+307
0.0207419     -1.79769e+307 -1.79769e+307
0.0208726     -1.79769e+307 -1.79769e+307
0.0210043     -1.79769e+307 -1.79769e+307
0.0211368     -1.79769e+307 -1.79769e+307
0.0212698     -1.79769e+307 -1.79769e+307
0.021404      -1.79769e+307 -1.79769e+307
0.0215389     -1.79769e+307 -1.79769e+307
0.0216744     -1.79769e+307 -1.79769e+307
0.0218113     -1.79769e+307 -1.79769e+307
0.0219488     -1.79769e+307 -1.79769e+307
0.0220876     -1.79769e+307 -1.79769e+307
0.0222272     -1.79769e+307 -1.79769e+307
0.0223682     -1.79769e+307 -1.79769e+307
0.0225099     -1.79769e+307 -1.79769e+307
0.0226523     -1.79769e+307 -1.79769e+307
0.0227955     -1.79769e+307 -1.79769e+307
0.0229402     -1.79769e+307 -1.79769e+307
0.0230857     -1.79769e+307 -1.79769e+307
0.023232      -1.79769e+307 -1.79769e+307
0.023379      -1.79769e+307 -1.79769e+307
0.0235261     -1.79769e+307 -1.79769e+307
0.023674      -1.79769e+307 -1.79769e+307
0.0238219     -1.79769e+307 -1.79769e+307
0.023969      -1.79769e+307 -1.79769e+307
0.0241144     -1.79769e+307 -1.79769e+307
0.024259      -1.79769e+307 -1.79769e+307
0.024402      -1.79769e+307 -1.79769e+307
0.0245442     -1.79769e+307 -1.79769e+307
0.0246857     -1.79769e+307 -1.79769e+307
0.0248255     -1.79769e+307 -1.79769e+307
0.0249646     -1.79769e+307 -1.79769e+307
0.0251029     -1.79769e+307 -1.79769e+307
0.0252405     -1.79769e+307 -1.79769e+307
0.0253773     -1.79769e+307 -1.79769e+307
0.0255133     -1.79769e+307 -1.79769e+307
0.0256493     -1.79769e+307 -1.79769e+307
0.0257846     -1.79769e+307 -1.79769e+307
0.0259191     -1.79769e+307 -1.79769e+307
0.0260537     -1.79769e+307 -1.79769e+307
0.0261875     -1.79769e+307 -1.79769e+307
0.0263212     -1.79769e+307 -1.79769e+307
0.0264543     -1.79769e+307 -1.79769e+307
0.0265873     -1.79769e+307 -1.79769e+307
0.0267196     -1.79769e+307 -1.79769e+307
0.0268504     -1.79769e+307 -1.79769e+307
0.0269804     -1.79769e+307 -1.79769e+307
0.027109      -1.79769e+307 -1.79769e+307
0.0272369     -1.79769e+307 -1.79769e+307
0.0273634     -1.79769e+307 -1.79769e+307
0.0274891     -1.79769e+307 -1.79769e+307
0.0276135     -1.79769e+307 -1.79769e+307
0.0277372     -1.79769e+307 -1.79769e+307
0.0278602     -1.79769e+307 -1.79769e+307
0.0279825     -1.79769e+307 -1.79769e+307
0.0281041     -1.79769e+307 -1.79769e+307
0.0282251     -1.79769e+307 -1.79769e+307
0.0283454     -1.79769e+307 -1.79769e+307
0.028465      -1.79769e+307 -1.79769e+307
0.028584      -1.79769e+307 -1.79769e+307
0.028703      -1.79769e+307 -1.79769e+307
0.0288213     -1.79769e+307 -1.79769e+307
0.0289396     -1.79769e+307 -1.79769e+307
0.0290573     -1.79769e+307 -1.79769e+307
0.0291749     -1.79769e+307 -1.79769e+307
0.0292919     -1.79769e+307 -1.79769e+307
0.0294089     -1.79769e+307 -1.79769e+307
0.0295259     -1.79769e+307 -1.79769e+307
0.0296423     -1.79769e+307 -1.79769e+307
0.0297586     -1.79769e+307 -1.79769e+307
0.0298749     -1.79769e+307 -1.79769e+307
0.0299912     -1.79769e+307 -1.79769e+307
0.0301076     -1.79769e+307 -1.79769e+307
0.0302239     -1.79769e+307 -1.79769e+307
0.0303402     -1.79769e+307 -1.79769e+307
0.0304566     -1.79769e+307 -1.79769e+307
0.0305729     -1.79769e+307 -1.79769e+307
0.0306892     -1.79769e+307 -1.79769e+307
0.0308056     -1.79769e+307 -1.79769e+307
0.0309219     -1.79769e+307 -1.79769e+307
0.0310382     -1.79769e+307 -1.79769e+307
0.0311545     -1.79769e+307 -1.79769e+307
0.0312709     -1.79769e+307 -1.79769e+307
0.0313872     -1.79769e+307 -1.79769e+307
0.0315035     -1.79769e+307 -1.79769e+307
0.0316199     -1.79769e+307 -1.79769e+307
0.0317369     -1.79769e+307 -1.79769e+307
0.0318533     -1.79769e+307 -1.79769e+307
0.0319696     -1.79769e+307 -1.79769e+307
0.0320859     -1.79769e+307 -1.79769e+307
0.0322015     -1.79769e+307 -1.79769e+307
0.0323171     -1.79769e+307 -1.79769e+307
0.0324319     -1.79769e+307 -1.79769e+307
0.0325467     -1.79769e+307 -1.79769e+307
0.0326615     -1.79769e+307 -1.79769e+307
0.0327756     -1.79769e+307 -1.79769e+307
0.0328897     -1.79769e+307 -1.79769e+307
0.0330037     -1.79769e+307 -1.79769e+307
0.0331178     -1.79769e+307 -1.79769e+307
0.0332311     -1.79769e+307 -1.79769e+307
0.0333444     -1.79769e+307 -1.79769e+307
0.0334577     -1.79769e+307 -1.79769e+307
0.0335718     -1.79769e+307 -1.79769e+307
0.0336859     -1.79769e+307 -1.79769e+307
0.0338        -1.79769e+307 -1.79769e+307
0.0339141     -1.79769e+307 -1.79769e+307
0.0340281     -1.79769e+307 -1.79769e+307
0.034143      -1.79769e+307 -1.79769e+307
0.034258      -1.79769e+307 -1.79769e+307
0.0343729     -1.79769e+307 -1.79769e+307
0.0344886     -1.79769e+307 -1.79769e+307
0.0346044     -1.79769e+307 -1.79769e+307
0.034721      -1.79769e+307 -1.79769e+307
0.0348376     -1.79769e+307 -1.79769e+307
0.0349543     -1.79769e+307 -1.79769e+307
0.0350718     -1.79769e+307 -1.79769e+307
0.0351894     -1.79769e+307 -1.79769e+307
0.0353069     -1.79769e+307 -1.79769e+307
0.0354254     -1.79769e+307 -1.79769e+307
0.0355469     -1.79769e+307 -1.79769e+307
0.0356693     -1.79769e+307 -1.79769e+307
0.0357918     -1.79769e+307 -1.79769e+307
0.0359143     -1.79769e+307 -1.79769e+307
0.0360368     -1.79769e+307 -1.79769e+307
0.0361593     -1.79769e+307 -1.79769e+307
0.0362818     -1.79769e+307 -1.79769e+307
0.0364042     -1.79769e+307 -1.79769e+307
0.0365267     -1.79769e+307 -1.79769e+307
0.0366481     -1.79769e+307 -1.79769e+307
0.0367695     -1.79769e+307 -1.79769e+307
0.0368909     -1.79769e+307 -1.79769e+307
0.0370123     -1.79769e+307 -1.79769e+307
0.0371336     -1.79769e+307 -1.79769e+307
0.037255      -1.79769e+307 -1.79769e+307
0.0373764     -1.79769e+307 -1.79769e+307
0.0374978     -1.79769e+307 -1.79769e+307
0.0376203     -1.79769e+307 -1.79769e+307
0.0377429     -1.79769e+307 -1.79769e+307
0.0378655     -1.79769e+307 -1.79769e+307
0.0379881     -1.79769e+307 -1.79769e+307
0.0381106     -1.79769e+307 -1.79769e+307
0.0382332     -1.79769e+307 -1.79769e+307
0.0383558     -1.79769e+307 -1.79769e+307
0.0384783     -1.79769e+307 -1.79769e+307
0.0386009     -1.79769e+307 -1.79769e+307
0.0387235     -1.79769e+307 -1.79769e+307
0.0388461     -1.79769e+307 -1.79769e+307
0.0389686     -1.79769e+307 -1.79769e+307
0.0390912     -1.79769e+307 -1.79769e+307
0.0392138     -1.79769e+307 -1.79769e+307
0.0393363     -1.79769e+307 -1.79769e+307
0.0394589     -1.79769e+307 -1.79769e+307
0.0395815     -1.79769e+307 -1.79769e+307
0.0397026     -1.79769e+307 -1.79769e+307
0.0398238     -1.79769e+307 -1.79769e+307
0.0399449     -1.79769e+307 -1.79769e+307
0.0400661     -1.79769e+307 -1.79769e+307
0.0401872     -1.79769e+307 -1.79769e+307
0.0403084     -1.79769e+307 -1.79769e+307
0.0404295     -1.79769e+307 -1.79769e+307
0.0405506     -1.79769e+307 -1.79769e+307
0.0406718     -1.79769e+307 -1.79769e+307
0.0407929     -1.79769e+307 -1.79769e+307
0.0409141     -1.79769e+307 -1.79769e+307
0.0410336     -1.79769e+307 -1.79769e+307
0.0411532     -1.79769e+307 -1.79769e+307
0.0412727     -1.79769e+307 -1.79769e+307
0.0413923     -1.79769e+307 -1.79769e+307
0.0415118     -1.79769e+307 -1.79769e+307
0.0416314     -1.79769e+307 -1.79769e+307
0.0417509     -1.79769e+307 -1.79769e+307
0.0418705     -1.79769e+307 -1.79769e+307
0.04199       -1.79769e+307 -1.79769e+307
0.0421096     -1.79769e+307 -1.79769e+307
0.0422291     -1.79769e+307 -1.79769e+307
0.0423487     -1.79769e+307 -1.79769e+307
0.0424683     -1.79769e+307 -1.79769e+307
0.0425878     -1.79769e+307 -1.79769e+307
0.0427074     -1.79769e+307 -1.79769e+307
0.0428269     -1.79769e+307 -1.79769e+307
0.0429465     -1.79769e+307 -1.79769e+307
0.043066      -1.79769e+307 -1.79769e+307
0.0431856     -1.79769e+307 -1.79769e+307
0.0433051     -1.79769e+307 -1.79769e+307
0.0434247     -1.79769e+307 -1.79769e+307
0.0435442     -1.79769e+307 -1.79769e+307
0.0436638     -1.79769e+307 -1.79769e+307
0.0437833     -1.79769e+307 -1.79769e+307
0.0439029     -1.79769e+307 -1.79769e+307
0.0440224     -1.79769e+307 -1.79769e+307
0.044142      -1.79769e+307 -1.79769e+307
0.0442615     -1.79769e+307 -1.79769e+307
0.0443811     -1.79769e+307 -1.79769e+307
0.0445006     -1.79769e+307 -1.79769e+307
0.0446202     -1.79769e+307 -1.79769e+307
0.0447397     -1.79769e+307 -1.79769e+307
0.0448593     -1.79769e+307 -1.79769e+307
0.0449788     -1.79769e+307 -1.79769e+307
0.0450984     -1.79769e+307 -1.79769e+307
0.0452179     -1.79769e+307 -1.79769e+307
0.0453375     -1.79769e+307 -1.79769e+307
0.045457      -1.79769e+307 -1.79769e+307
0.0455766     -1.79769e+307 -1.79769e+307
0.0456961     -1.79769e+307 -1.79769e+307
0.0458157     -1.79769e+307 -1.79769e+307
0.0459352     -1.79769e+307 -1.79769e+307
0.0460548     -1.79769e+307 -1.79769e+307
0.0461743     -1.79769e+307 -1.79769e+307
0.0462939     -1.79769e+307 -1.79769e+307
0.0464135     -1.79769e+307 -1.79769e+307
0.046533      -1.79769e+307 -1.79769e+307
0.0466526     -1.79769e+307 -1.79769e+307
0.0467721     -1.79769e+307 -1.79769e+307
0.0468917     -1.79769e+307 -1.79769e+307
0.0470112     -1.79769e+307 -1.79769e+307
0.0471308     -1.79769e+307 -1.79769e+307
0.0472503     -1.79769e+307 -1.79769e+307
0.0473699     -1.79769e+307 -1.79769e+307
0.0474894     -1.79769e+307 -1.79769e+307
0.047609      -1.79769e+307 -1.79769e+307
0.0477285     -1.79769e+307 -1.79769e+307
0.0478481     -1.79769e+307 -1.79769e+307
0.0479676     -1.79769e+307 -1.79769e+307
0.0480872     -1.79769e+307 -1.79769e+307
0.0482067     -1.79769e+307 -1.79769e+307
0.0483263     -1.79769e+307 -1.79769e+307
0.0484458     -1.79769e+307 -1.79769e+307
0.0485654     -1.79769e+307 -1.79769e+307
0.0486849     -1.79769e+307 -1.79769e+307
0.0488045     -1.79769e+307 -1.79769e+307
0.048924      -1.79769e+307 -1.79769e+307
0.0490436     -1.79769e+307 -1.79769e+307
0.0491631     -1.79769e+307 -1.79769e+307
0.0492827     -1.79769e+307 -1.79769e+307
0.0494022     -1.79769e+307 -1.79769e+307
0.0495218     -1.79769e+307 -1.79769e+307
0.0496413     -1.79769e+307 -1.79769e+307
0.0497609     -1.79769e+307 -1.79769e+307
0.0498804     -1.79769e+307 -1.79769e+307
0.05          -1.79769e+307 -1.79769e+307
0.0501222     -1.79769e+307 -1.79769e+307
0.0502448     -1.79769e+307 -1.79769e+307
0.0503673     -1.79769e+307 -1.79769e+307
0.0504902     -1.79769e+307 -1.79769e+307
0.0506131     -1.79769e+307 -1.79769e+307
0.0507359     -1.79769e+307 -1.79769e+307
0.0508591     -1.79769e+307 -1.79769e+307
0.0509822     -1.79769e+307 -1.79769e+307
0.0511057     -1.79769e+307 -1.79769e+307
0.0512292     -1.79769e+307 -1.79769e+307
0.0513526     -1.79769e+307 -1.79769e+307
0.0514764     -1.79769e+307 -1.79769e+307
0.0516002     -1.79769e+307 -1.79769e+307
0.0517243     -1.79769e+307 -1.79769e+307
0.0518484     -1.79769e+307 -1.79769e+307
0.0519725     -1.79769e+307 -1.79769e+307
0.0520969     -1.79769e+307 -1.79769e+307
0.0522214     -1.79769e+307 -1.79769e+307
0.0523458     -1.79769e+307 -1.79769e+307
0.0524705     -1.79769e+307 -1.79769e+307
0.0525953     -1.79769e+307 -1.79769e+307
0.05272       -1.79769e+307 -1.79769e+307
0.0528451     -1.79769e+307 -1.79769e+307
0.0529702     -1.79769e+307 -1.79769e+307
0.0530953     -1.79769e+307 -1.79769e+307
0.0532204     -1.79769e+307 -1.79769e+307
0.0533454     -1.79769e+307 -1.79769e+307
0.0534705     -1.79769e+307 -1.79769e+307
0.0535956     -1.79769e+307 -1.79769e+307
0.0537207     -1.79769e+307 -1.79769e+307
0.0538457     -1.79769e+307 -1.79769e+307
0.0539708     -1.79769e+307 -1.79769e+307
0.0540962     -1.79769e+307 -1.79769e+307
0.0542217     -1.79769e+307 -1.79769e+307
0.0543474     -1.79769e+307 -1.79769e+307
0.0544732     -1.79769e+307 -1.79769e+307
0.0545993     -1.79769e+307 -1.79769e+307
0.0547258     -1.79769e+307 -1.79769e+307
0.0548522     -1.79769e+307 -1.79769e+307
0.0549791     -1.79769e+307 -1.79769e+307
0.0551062     -1.79769e+307 -1.79769e+307
0.0552338     -1.79769e+307 -1.79769e+307
0.055362      -1.79769e+307 -1.79769e+307
0.0554911     -1.79769e+307 -1.79769e+307
0.0556208     -1.79769e+307 -1.79769e+307
0.055751      -1.79769e+307 -1.79769e+307
0.0558819     -1.79769e+307 -1.79769e+307
0.0560132     -1.79769e+307 -1.79769e+307
0.0561453     -1.79769e+307 -1.79769e+307
0.0562774     -1.79769e+307 -1.79769e+307
0.0564095     -1.79769e+307 -1.79769e+307
0.056542      -1.79769e+307 -1.79769e+307
0.0566753     -1.79769e+307 -1.79769e+307
0.0568094     -1.79769e+307 -1.79769e+307
0.0569444     -1.79769e+307 -1.79769e+307
0.0570802     -1.79769e+307 -1.79769e+307
0.0572173     -1.79769e+307 -1.79769e+307
0.0573553     -1.79769e+307 -1.79769e+307
0.0574942     -1.79769e+307 -1.79769e+307
0.0576345     -1.79769e+307 -1.79769e+307
0.0577757     -1.79769e+307 -1.79769e+307
0.0579179     -1.79769e+307 -1.79769e+307
0.0580605     -1.79769e+307 -1.79769e+307
0.0582042     -1.79769e+307 -1.79769e+307
0.0583488     -1.79769e+307 -1.79769e+307
0.0584939     -1.79769e+307 -1.79769e+307
0.0586396     -1.79769e+307 -1.79769e+307
0.0587852     -1.79769e+307 -1.79769e+307
0.0589313     -1.79769e+307 -1.79769e+307
0.0590775     -1.79769e+307 -1.79769e+307
0.0592237     -1.79769e+307 -1.79769e+307
0.0593703     -1.79769e+307 -1.79769e+307
0.059517      -1.79769e+307 -1.79769e+307
0.0596637     -1.79769e+307 -1.79769e+307
0.0598104     -1.79769e+307 -1.79769e+307
0.059957      -1.79769e+307 -1.79769e+307
0.0601032     -1.79769e+307 -1.79769e+307
0.0602493     -1.79769e+307 -1.79769e+307
0.0603949     -1.79769e+307 -1.79769e+307
0.06054       -1.79769e+307 -1.79769e+307
0.0606845     -1.79769e+307 -1.79769e+307
0.060828      -1.79769e+307 -1.79769e+307
0.060971      -1.79769e+307 -1.79769e+307
0.0611129     -1.79769e+307 -1.79769e+307
0.0612538     -1.79769e+307 -1.79769e+307
0.0613937     -1.79769e+307 -1.79769e+307
0.0615326     -1.79769e+307 -1.79769e+307
0.0616704     -1.79769e+307 -1.79769e+307
0.0618073     -1.79769e+307 -1.79769e+307
0.0619432     -1.79769e+307 -1.79769e+307
0.0620787     -1.79769e+307 -1.79769e+307
0.0622132     -1.79769e+307 -1.79769e+307
0.0623472     -1.79769e+307 -1.79769e+307
0.0624802     -1.79769e+307 -1.79769e+307
0.0626128     -1.79769e+307 -1.79769e+307
0.0627449     -1.79769e+307 -1.79769e+307
0.0628765     -1.79769e+307 -1.79769e+307
0.0630077     -1.79769e+307 -1.79769e+307
0.0631389     -1.79769e+307 -1.79769e+307
0.0632696     -1.79769e+307 -1.79769e+307
0.0634003     -1.79769e+307 -1.79769e+307
0.0635306     -1.79769e+307 -1.79769e+307
0.0636608     -1.79769e+307 -1.79769e+307
0.0637906     -1.79769e+307 -1.79769e+307
0.0639204     -1.79769e+307 -1.79769e+307
0.0640502     -1.79769e+307 -1.79769e+307
0.0641799     -1.79769e+307 -1.79769e+307
0.0643093     -1.79769e+307 -1.79769e+307
0.0644386     -1.79769e+307 -1.79769e+307
0.0645679     -1.79769e+307 -1.79769e+307
0.0646972     -1.79769e+307 -1.79769e+307
0.0648265     -1.79769e+307 -1.79769e+307
0.0649558     -1.79769e+307 -1.79769e+307
0.0650851     -1.79769e+307 -1.79769e+307
0.0652145     -1.79769e+307 -1.79769e+307
0.0653438     -1.79769e+307 -1.79769e+307
0.0654736     -1.79769e+307 -1.79769e+307
0.0656034     -1.79769e+307 -1.79769e+307
0.0657332     -1.79769e+307 -1.79769e+307
0.065863      -1.79769e+307 -1.79769e+307
0.0659928     -1.79769e+307 -1.79769e+307
0.0661231     -1.79769e+307 -1.79769e+307
0.0662534     -1.79769e+307 -1.79769e+307
0.0663837     -1.79769e+307 -1.79769e+307
0.0665145     -1.79769e+307 -1.79769e+307
0.0666453     -1.79769e+307 -1.79769e+307
0.0667761     -1.79769e+307 -1.79769e+307
0.0669074     -1.79769e+307 -1.79769e+307
0.0670387     -1.79769e+307 -1.79769e+307
0.0671705     -1.79769e+307 -1.79769e+307
0.0673024     -1.79769e+307 -1.79769e+307
0.0674342     -1.79769e+307 -1.79769e+307
0.0675666     -1.79769e+307 -1.79769e+307
0.067699      -1.79769e+307 -1.79769e+307
0.0678319     -1.79769e+307 -1.79769e+307
0.0679648     -1.79769e+307 -1.79769e+307
0.0680978     -1.79769e+307 -1.79769e+307
0.0682313     -1.79769e+307 -1.79769e+307
0.0683647     -1.79769e+307 -1.79769e+307
0.0684988     -1.79769e+307 -1.79769e+307
0.0686328     -1.79769e+307 -1.79769e+307
0.0687675     -1.79769e+307 -1.79769e+307
0.0689021     -1.79769e+307 -1.79769e+307
0.0690367     -1.79769e+307 -1.79769e+307
0.0691719     -1.79769e+307 -1.79769e+307
0.0693071     -1.79769e+307 -1.79769e+307
0.0694429     -1.79769e+307 -1.79769e+307
0.0695787     -1.79769e+307 -1.79769e+307
0.0697152     -1.79769e+307 -1.79769e+307
0.0698516     -1.79769e+307 -1.79769e+307
0.069988      -1.79769e+307 -1.79769e+307
0.070125      -1.79769e+307 -1.79769e+307
0.0702621     -1.79769e+307 -1.79769e+307
0.0703998     -1.79769e+307 -1.79769e+307
0.0705374     -1.79769e+307 -1.79769e+307
0.0706758     -1.79769e+307 -1.79769e+307
0.0708141     -1.79769e+307 -1.79769e+307
0.0709531     -1.79769e+307 -1.79769e+307
0.0710927     -1.79769e+307 -1.79769e+307
0.0712324     -1.79769e+307 -1.79769e+307
0.0713727     -1.79769e+307 -1.79769e+307