# Probe 0 (0 9.95 19.77)
# Probe 1 (0 -9.95 19.77)
# Time        0             1            
0             -1.79769e+307 -1.79769e+307
0.00119048    -1.79769e+307 -1.79769e+307
0.00120199    -1.79769e+307 -1.79769e+307
0.00121481    -1.79769e+307 -1.79769e+307
0.00122923    -1.79769e+307 -1.79769e+307
0.00124562    -1.79769e+307 -1.79769e+307
0.00126435    -1.79769e+307 -1.79769e+307
0.00128481    -1.79769e+307 -1.79769e+307
0.00130588    -1.79769e+307 -1.79769e+307
0.00132756    -1.79769e+307 -1.79769e+307
0.00134984    -1.79769e+307 -1.79769e+307
0.00137276    -1.79769e+307 -1.79769e+307
0.00139638    -1.79769e+307 -1.79769e+307
0.00142075    -1.79769e+307 -1.79769e+307
0.00144591    -1.79769e+307 -1.79769e+307
0.00147187    -1.79769e+307 -1.79769e+307
0.00149865    -1.79769e+307 -1.79769e+307
0.00152639    -1.79769e+307 -1.79769e+307
0.00155519    -1.79769e+307 -1.79769e+307
0.00158513    -1.79769e+307 -1.79769e+307
0.00161626    -1.79769e+307 -1.79769e+307
0.00164863    -1.79769e+307 -1.79769e+307
0.00168225    -1.79769e+307 -1.79769e+307
0.00171719    -1.79769e+307 -1.79769e+307
0.00175349    -1.79769e+307 -1.79769e+307
0.00179124    -1.79769e+307 -1.79769e+307
0.0018305     -1.79769e+307 -1.79769e+307
0.00187136    -1.79769e+307 -1.79769e+307
0.00191391    -1.79769e+307 -1.79769e+307
0.00195823    -1.79769e+307 -1.79769e+307
0.00200442    -1.79769e+307 -1.79769e+307
0.00205261    -1.79769e+307 -1.79769e+307
0.00210287    -1.79769e+307 -1.79769e+307
0.00215533    -1.79769e+307 -1.79769e+307
0.00221014    -1.79769e+307 -1.79769e+307
0.00226737    -1.79769e+307 -1.79769e+307
0.00232734    -1.79769e+307 -1.79769e+307
0.00239023    -1.79769e+307 -1.79769e+307
0.00245635    -1.79769e+307 -1.79769e+307
0.00252586    -1.79769e+307 -1.79769e+307
0.00259427    -1.79769e+307 -1.79769e+307
0.0026618     -1.79769e+307 -1.79769e+307
0.00272914    -1.79769e+307 -1.79769e+307
0.00279686    -1.79769e+307 -1.79769e+307
0.00286547    -1.79769e+307 -1.79769e+307
0.0029353     -1.79769e+307 -1.79769e+307
0.00300639    -1.79769e+307 -1.79769e+307
0.00307891    -1.79769e+307 -1.79769e+307
0.00315304    -1.79769e+307 -1.79769e+307
0.00322872    -1.79769e+307 -1.79769e+307
0.00330539    -1.79769e+307 -1.79769e+307
0.00338219    -1.79769e+307 -1.79769e+307
0.00345925    -1.79769e+307 -1.79769e+307
0.00353656    -1.79769e+307 -1.79769e+307
0.00361426    -1.79769e+307 -1.79769e+307
0.00369248    -1.79769e+307 -1.79769e+307
0.0037711     -1.79769e+307 -1.79769e+307
0.00385026    -1.79769e+307 -1.79769e+307
0.0039301     -1.79769e+307 -1.79769e+307
0.00401064    -1.79769e+307 -1.79769e+307
0.00409204    -1.79769e+307 -1.79769e+307
0.00417446    -1.79769e+307 -1.79769e+307
0.00425793    -1.79769e+307 -1.79769e+307
0.00434248    -1.79769e+307 -1.79769e+307
0.00442814    -1.79769e+307 -1.79769e+307
0.00451511    -1.79769e+307 -1.79769e+307
0.00460343    -1.79769e+307 -1.79769e+307
0.00469315    -1.79769e+307 -1.79769e+307
0.00478449    -1.79769e+307 -1.79769e+307
0.00487753    -1.79769e+307 -1.79769e+307
0.00497233    -1.79769e+307 -1.79769e+307
0.00506895    -1.79769e+307 -1.79769e+307
0.00516748    -1.79769e+307 -1.79769e+307
0.00526823    -1.79769e+307 -1.79769e+307
0.00537106    -1.79769e+307 -1.79769e+307
0.00547632    -1.79769e+307 -1.79769e+307
0.00558387    -1.79769e+307 -1.79769e+307
0.00569408    -1.79769e+307 -1.79769e+307
0.00580682    -1.79769e+307 -1.79769e+307
0.00592251    -1.79769e+307 -1.79769e+307
0.00604131    -1.79769e+307 -1.79769e+307
0.00616308    -1.79769e+307 -1.79769e+307
0.00628833    -1.79769e+307 -1.79769e+307
0.00641689    -1.79769e+307 -1.79769e+307
0.00654896    -1.79769e+307 -1.79769e+307
0.00668475    -1.79769e+307 -1.79769e+307
0.00682448    -1.79769e+307 -1.79769e+307
0.00696839    -1.79769e+307 -1.79769e+307
0.00711678    -1.79769e+307 -1.79769e+307
0.00726993    -1.79769e+307 -1.79769e+307
0.00742819    -1.79769e+307 -1.79769e+307
0.00759193    -1.79769e+307 -1.79769e+307
0.00776156    -1.79769e+307 -1.79769e+307
0.00793756    -1.79769e+307 -1.79769e+307
0.00811655    -1.79769e+307 -1.79769e+307
0.00829708    -1.79769e+307 -1.79769e+307
0.00847919    -1.79769e+307 -1.79769e+307
0.00866291    -1.79769e+307 -1.79769e+307
0.00884911    -1.79769e+307 -1.79769e+307
0.00903701    -1.79769e+307 -1.79769e+307
0.00922754    -1.79769e+307 -1.79769e+307
0.00942077    -1.79769e+307 -1.79769e+307
0.00961776    -1.79769e+307 -1.79769e+307
0.00981767    -1.79769e+307 -1.79769e+307
0.0100206     -1.79769e+307 -1.79769e+307
0.0102278     -1.79769e+307 -1.79769e+307
0.0104371     -1.79769e+307 -1.79769e+307
0.0106498     -1.79769e+307 -1.79769e+307
0.0108537     -1.79769e+307 -1.79769e+307
0.0110724     -1.79769e+307 -1.79769e+307
0.0112936     -1.79769e+307 -1.79769e+307
0.0115074     -1.79769e+307 -1.79769e+307
0.0117143     -1.79769e+307 -1.79769e+307
0.0119148     -1.79769e+307 -1.79769e+307
0.0121101     -1.79769e+307 -1.79769e+307
0.0123005     -1.79769e+307 -1.79769e+307
0.0124871     -1.79769e+307 -1.79769e+307
0.0126701     -1.79769e+307 -1.79769e+307
0.0128505     -1.79769e+307 -1.79769e+307
0.0130291     -1.79769e+307 -1.79769e+307
0.0132051     -1.79769e+307 -1.79769e+307
0.0133795     -1.79769e+307 -1.79769e+307
0.0135522     -1.79769e+307 -1.79769e+307
0.0137242     -1.79769e+307 -1.79769e+307
0.0138953     -1.79769e+307 -1.79769e+307
0.0140656     -1.79769e+307 -1.79769e+307
0.0142351     -1.79769e+307 -1.79769e+307
0.0144038     -1.79769e+307 -1.79769e+307
0.0145725     -1.79769e+307 -1.79769e+307
0.0147412     -1.79769e+307 -1.79769e+307
0.0149091     -1.79769e+307 -1.79769e+307
0.015077      -1.79769e+307 -1.79769e+307
0.0152449     -1.79769e+307 -1.79769e+307
0.0154128     -1.79769e+307 -1.79769e+307
0.0155807     -1.79769e+307 -1.79769e+307
0.0157486     -1.79769e+307 -1.79769e+307
0.0159165     -1.79769e+307 -1.79769e+307
0.0160844     -1.79769e+307 -1.79769e+307
0.0162523     -1.79769e+307 -1.79769e+307
0.0164202     -1.79769e+307 -1.79769e+307
0.0165889     -1.79769e+307 -1.79769e+307
0.0167577     -1.79769e+307 -1.79769e+307
0.0169264     -1.79769e+307 -1.79769e+307
0.017096      -1.79769e+307 -1.79769e+307
0.0172656     -1.79769e+307 -1.79769e+307
0.0174361     -1.79769e+307 -1.79769e+307
0.0176066     -1.79769e+307 -1.79769e+307
0.0177771     -1.79769e+307 -1.79769e+307
0.0179485     -1.79769e+307 -1.79769e+307
0.0181199     -1.79769e+307 -1.79769e+307
0.0182913     -1.79769e+307 -1.79769e+307
0.0184636     -1.79769e+307 -1.79769e+307
0.018636      -1.79769e+307 -1.79769e+307
0.0188092     -1.79769e+307 -1.79769e+307
0.0189825     -1.79769e+307 -1.79769e+307
0.0191558     -1.79769e+307 -1.79769e+307
0.0193301     -1.79769e+307 -1.79769e+307
0.0195043     -1.79769e+307 -1.79769e+307
0.0196796     -1.79769e+307 -1.79769e+307
0.0198549     -1.79769e+307 -1.79769e+307
0.0200311     -1.79769e+307 -1.79769e+307
0.0202074     -1.79769e+307 -1.79769e+307
0.0203848     -1.79769e+307 -1.79769e+307
0.0205621     -1.79769e+307 -1.79769e+307
0.0207405     -1.79769e+307 -1.79769e+307
0.0209189     -1.79769e+307 -1.79769e+307
0.0210984     -1.79769e+307 -1.79769e+307
0.0212779     -1.79769e+307 -1.79769e+307
0.0214575     -1.79769e+307 -1.79769e+307
0.0216381     -1.79769e+307 -1.79769e+307
0.0218188     -1.79769e+307 -1.79769e+307
0.0219994     -1.79769e+307 -1.79769e+307
0.0221812     -1.79769e+307 -1.79769e+307
0.0223631     -1.79769e+307 -1.79769e+307
0.0225449     -1.79769e+307 -1.79769e+307
0.0227279     -1.79769e+307 -1.79769e+307
0.0229109     -1.79769e+307 -1.79769e+307
0.023094      -1.79769e+307 -1.79769e+307
0.0232783     -1.79769e+307 -1.79769e+307
0.0234626     -1.79769e+307 -1.79769e+307
0.0236468     -1.79769e+307 -1.79769e+307
0.0238324     -1.79769e+307 -1.79769e+307
0.024018      -1.79769e+307 -1.79769e+307
0.0242036     -1.79769e+307 -1.79769e+307
0.0243905     -1.79769e+307 -1.79769e+307
0.0245775     -1.79769e+307 -1.79769e+307
0.0247644     -1.79769e+307 -1.79769e+307
0.0249513     -1.79769e+307 -1.79769e+307
0.0251397     -1.79769e+307 -1.79769e+307
0.025328      -1.79769e+307 -1.79769e+307
0.0255163     -1.79769e+307 -1.79769e+307
0.0257047     -1.79769e+307 -1.79769e+307
0.025893      -1.79769e+307 -1.79769e+307
0.0260828     -1.79769e+307 -1.79769e+307
0.0262726     -1.79769e+307 -1.79769e+307
0.0264625     -1.79769e+307 -1.79769e+307
0.0266523     -1.79769e+307 -1.79769e+307
0.0268436     -1.79769e+307 -1.79769e+307
0.027035      -1.79769e+307 -1.79769e+307
0.027228      -1.79769e+307 -1.79769e+307
0.027421      -1.79769e+307 -1.79769e+307
0.0276156     -1.79769e+307 -1.79769e+307
0.027812      -1.79769e+307 -1.79769e+307
0.0280101     -1.79769e+307 -1.79769e+307
0.02821       -1.79769e+307 -1.79769e+307
0.0284118     -1.79769e+307 -1.79769e+307
0.0286154     -1.79769e+307 -1.79769e+307
0.0288191     -1.79769e+307 -1.79769e+307
0.0290228     -1.79769e+307 -1.79769e+307
0.0292284     -1.79769e+307 -1.79769e+307
0.0294341     -1.79769e+307 -1.79769e+307
0.0296418     -1.79769e+307 -1.79769e+307
0.0298495     -1.79769e+307 -1.79769e+307
0.0300594     -1.79769e+307 -1.79769e+307
0.0302693     -1.79769e+307 -1.79769e+307
0.0304815     -1.79769e+307 -1.79769e+307
0.0306937     -1.79769e+307 -1.79769e+307
0.0309082     -1.79769e+307 -1.79769e+307
0.0311227     -1.79769e+307 -1.79769e+307
0.0313397     -1.79769e+307 -1.79769e+307
0.0315567     -1.79769e+307 -1.79769e+307
0.0317762     -1.79769e+307 -1.79769e+307
0.0319958     -1.79769e+307 -1.79769e+307
0.0322153     -1.79769e+307 -1.79769e+307
0.0324377     -1.79769e+307 -1.79769e+307
0.03266       -1.79769e+307 -1.79769e+307
0.0328823     -1.79769e+307 -1.79769e+307
0.0331075     -1.79769e+307 -1.79769e+307
0.0333327     -1.79769e+307 -1.79769e+307
0.033558      -1.79769e+307 -1.79769e+307
0.0337832     -1.79769e+307 -1.79769e+307
0.0340084     -1.79769e+307 -1.79769e+307
0.0342369     -1.79769e+307 -1.79769e+307
0.0344653     -1.79769e+307 -1.79769e+307
0.0346938     -1.79769e+307 -1.79769e+307
0.0349222     -1.79769e+307 -1.79769e+307
0.0351507     -1.79769e+307 -1.79769e+307
0.0353791     -1.79769e+307 -1.79769e+307
0.0356112     -1.79769e+307 -1.79769e+307
0.0358433     -1.79769e+307 -1.79769e+307
0.0360754     -1.79769e+307 -1.79769e+307
0.0363074     -1.79769e+307 -1.79769e+307
0.0365395     -1.79769e+307 -1.79769e+307
0.0367716     -1.79769e+307 -1.79769e+307
0.0370037     -1.79769e+307 -1.79769e+307
0.03724       -1.79769e+307 -1.79769e+307
0.0374763     -1.79769e+307 -1.79769e+307
0.0377082     -1.79769e+307 -1.79769e+307
0.0379358     -1.79769e+307 -1.79769e+307
0.0381592     -1.79769e+307 -1.79769e+307
0.0383785     -1.79769e+307 -1.79769e+307
0.0385937     -1.79769e+307 -1.79769e+307
0.0388089     -1.79769e+307 -1.79769e+307
0.0390201     -1.79769e+307 -1.79769e+307
0.0392273     -1.79769e+307 -1.79769e+307
0.0394267     -1.79769e+307 -1.79769e+307
0.0396225     -1.79769e+307 -1.79769e+307
0.0398079     -1.79769e+307 -1.79769e+307
0.0399966     -1.79769e+307 -1.79769e+307
0.0401853     -1.79769e+307 -1.79769e+307
0.0403778     -1.79769e+307 -1.79769e+307
0.0405702     -1.79769e+307 -1.79769e+307
0.0407667     -1.79769e+307 -1.79769e+307
0.0409631     -1.79769e+307 -1.79769e+307
0.041164      -1.79769e+307 -1.79769e+307
0.0413648     -1.79769e+307 -1.79769e+307
0.0415704     -1.79769e+307 -1.79769e+307
0.041776      -1.79769e+307 -1.79769e+307
0.0419816     -1.79769e+307 -1.79769e+307
0.0421872     -1.79769e+307 -1.79769e+307
0.0423983     -1.79769e+307 -1.79769e+307
0.0426095     -1.79769e+307 -1.79769e+307
0.0428207     -1.79769e+307 -1.79769e+307
0.0430318     -1.79769e+307 -1.79769e+307
0.0432496     -1.79769e+307 -1.79769e+307
0.0434673     -1.79769e+307 -1.79769e+307
0.0436851     -1.79769e+307 -1.79769e+307
0.0439028     -1.79769e+307 -1.79769e+307
0.0441206     -1.79769e+307 -1.79769e+307
0.0443383     -1.79769e+307 -1.79769e+307
0.044548      -1.79769e+307 -1.79769e+307
0.0447577     -1.79769e+307 -1.79769e+307
0.0449674     -1.79769e+307 -1.79769e+307
0.0451771     -1.79769e+307 -1.79769e+307
0.0453868     -1.79769e+307 -1.79769e+307
0.0455874     -1.79769e+307 -1.79769e+307
0.0457879     -1.79769e+307 -1.79769e+307
0.0459885     -1.79769e+307 -1.79769e+307
0.0461891     -1.79769e+307 -1.79769e+307
0.0463897     -1.79769e+307 -1.79769e+307
0.0465902     -1.79769e+307 -1.79769e+307
0.0467908     -1.79769e+307 -1.79769e+307
0.0469914     -1.79769e+307 -1.79769e+307
0.047192      -1.79769e+307 -1.79769e+307
0.0473925     -1.79769e+307 -1.79769e+307
0.0475931     -1.79769e+307 -1.79769e+307
0.0477937     -1.79769e+307 -1.79769e+307
0.0479943     -1.79769e+307 -1.79769e+307
0.0481948     -1.79769e+307 -1.79769e+307
0.0483954     -1.79769e+307 -1.79769e+307
0.048596      -1.79769e+307 -1.79769e+307
0.0487966     -1.79769e+307 -1.79769e+307
0.0489971     -1.79769e+307 -1.79769e+307
0.0491977     -1.79769e+307 -1.79769e+307
0.0493983     -1.79769e+307 -1.79769e+307
0.0495989     -1.79769e+307 -1.79769e+307
0.0497994     -1.79769e+307 -1.79769e+307
0.05          -1.79769e+307 -1.79769e+307
0.0502119     -1.79769e+307 -1.79769e+307
0.0504246     -1.79769e+307 -1.79769e+307
0.0506383     -1.79769e+307 -1.79769e+307
0.050852      -1.79769e+307 -1.79769e+307
0.0510666     -1.79769e+307 -1.79769e+307
0.0512822     -1.79769e+307 -1.79769e+307
0.0514987     -1.79769e+307 -1.79769e+307
0.0517152     -1.79769e+307 -1.79769e+307
0.0519327     -1.79769e+307 -1.79769e+307
0.0521512     -1.79769e+307 -1.79769e+307
0.0523707     -1.79769e+307 -1.79769e+307
0.0525912     -1.79769e+307 -1.79769e+307
0.0528128     -1.79769e+307 -1.79769e+307
0.0530364     -1.79769e+307 -1.79769e+307
0.0532622     -1.79769e+307 -1.79769e+307
0.0534891     -1.79769e+307 -1.79769e+307
0.0537182     -1.79769e+307 -1.79769e+307
0.0539496     -1.79769e+307 -1.79769e+307
0.0541845     -1.79769e+307 -1.79769e+307
0.0544219     -1.79769e+307 -1.79769e+307
0.0546618     -1.79769e+307 -1.79769e+307
0.0549056     -1.79769e+307 -1.79769e+307
0.055152      -1.79769e+307 -1.79769e+307
0.0554011     -1.79769e+307 -1.79769e+307
0.0556545     -1.79769e+307 -1.79769e+307
0.0559124     -1.79769e+307 -1.79769e+307
0.0561732     -1.79769e+307 -1.79769e+307
0.0564389     -1.79769e+307 -1.79769e+307
0.0567094     -1.79769e+307 -1.79769e+307
0.0569852     -1.79769e+307 -1.79769e+307
0.0572663     -1.79769e+307 -1.79769e+307
0.0575531     -1.79769e+307 -1.79769e+307
0.0578458     -1.79769e+307 -1.79769e+307
0.0581427     -1.79769e+307 -1.79769e+307
0.058446      -1.79769e+307 -1.79769e+307
0.0587538     -1.79769e+307 -1.79769e+307
0.0590593     -1.79769e+307 -1.79769e+307
0.0593604     -1.79769e+307 -1.79769e+307
0.0596592     -1.79769e+307 -1.79769e+307
0.0599558     -1.79769e+307 -1.79769e+307
0.0602503     -1.79769e+307 -1.79769e+307
0.0605447     -1.79769e+307 -1.79769e+307
0.060837      -1.79769e+307 -1.79769e+307
0.0611292     -1.79769e+307 -1.79769e+307
0.0614193     -1.79769e+307 -1.79769e+307
0.0617094     -1.79769e+307 -1.79769e+307
0.0619995     -1.79769e+307 -1.79769e+307
0.0622896     -1.79769e+307 -1.79769e+307
0.0625796     -1.79769e+307 -1.79769e+307
0.062872      -1.79769e+307 -1.79769e+307
0.0631643     -1.79769e+307 -1.79769e+307
0.063459      -1.79769e+307 -1.79769e+307
0.0637537     -1.79769e+307 -1.79769e+307
0.0640484     -1.79769e+307 -1.79769e+307
0.0643431     -1.79769e+307 -1.79769e+307
0.0646378     -1.79769e+307 -1.79769e+307
0.0649349     -1.79769e+307 -1.79769e+307
0.0652321     -1.79769e+307 -1.79769e+307
0.0655267     -1.79769e+307 -1.79769e+307
0.0658164     -1.79769e+307 -1.79769e+307
0.0661013     -1.79769e+307 -1.79769e+307
0.0663838     -1.79769e+307 -1.79769e+307
0.0666616     -1.79769e+307 -1.79769e+307
0.0669349     -1.79769e+307 -1.79769e+307
0.0672037     -1.79769e+307 -1.79769e+307
0.0674703     -1.79769e+307 -1.79769e+307
0.0677326     -1.79769e+307 -1.79769e+307
0.0679929     -1.79769e+307 -1.79769e+307
0.0682489     -1.79769e+307 -1.79769e+307
0.0685029     -1.79769e+307 -1.79769e+307
0.0687549     -1.79769e+307 -1.79769e+307
0.0690049     -1.79769e+307 -1.79769e+307
0.0692528     -1.79769e+307 -1.79769e+307
0.0695008     -1.79769e+307 -1.79769e+307
0.0697488     -1.79769e+307 -1.79769e+307
0.0699988     -1.79769e+307 -1.79769e+307
0.070253      -1.79769e+307 -1.79769e+307
0.0705117     -1.79769e+307 -1.79769e+307
0.070775      -1.79769e+307 -1.79769e+307
0.0710431     -1.79769e+307 -1.79769e+307
0.0713189     -1.79769e+307 -1.79769e+307
0.0716001     -1.79769e+307 -1.79769e+307
0.0718785     -1.79769e+307 -1.79769e+307
0.0721515     -1.79769e+307 -1.79769e+307
0.0724193     -1.79769e+307 -1.79769e+307
0.0726845     -1.79769e+307 -1.79769e+307
0.0729497     -1.79769e+307 -1.79769e+307
0.0732149     -1.79769e+307 -1.79769e+307
0.0734827     -1.79769e+307 -1.79769e+307
0.0737561     -1.79769e+307 -1.79769e+307
0.0740324     -1.79769e+307 -1.79769e+307
0.0743086     -1.79769e+307 -1.79769e+307
0.0745879     -1.79769e+307 -1.79769e+307
0.0748671     -1.79769e+307 -1.79769e+307
0.0751527     -1.79769e+307 -1.79769e+307
0.0754383     -1.79769e+307 -1.79769e+307
0.0757174     -1.79769e+307 -1.79769e+307
0.0759934     -1.79769e+307 -1.79769e+307
0.0762662     -1.79769e+307 -1.79769e+307
0.076539      -1.79769e+307 -1.79769e+307
0.0768118     -1.79769e+307 -1.79769e+307
0.0770814     -1.79769e+307 -1.79769e+307
0.0773479     -1.79769e+307 -1.79769e+307
0.0776144     -1.79769e+307 -1.79769e+307
0.0778778     -1.79769e+307 -1.79769e+307
0.078138      -1.79769e+307 -1.79769e+307
0.0783983     -1.79769e+307 -1.79769e+307
0.0786554     -1.79769e+307 -1.79769e+307
0.0789126     -1.79769e+307 -1.79769e+307
0.0791667     -1.79769e+307 -1.79769e+307
0.0794177     -1.79769e+307 -1.79769e+307
0.0796687     -1.79769e+307 -1.79769e+307
0.0799166     -1.79769e+307 -1.79769e+307
0.0801646     -1.79769e+307 -1.79769e+307
0.0804125     -1.79769e+307 -1.79769e+307
0.0806605     -1.79769e+307 -1.79769e+307
0.0809084     -1.79769e+307 -1.79769e+307
0.0811563     -1.79769e+307 -1.79769e+307
0.0814043     -1.79769e+307 -1.79769e+307
0.0816522     -1.79769e+307 -1.79769e+307
0.0819002     -1.79769e+307 -1.79769e+307
0.0821481     -1.79769e+307 -1.79769e+307
0.0823961     -1.79769e+307 -1.79769e+307
0.082644      -1.79769e+307 -1.79769e+307
0.0828919     -1.79769e+307 -1.79769e+307
0.0831399     -1.79769e+307 -1.79769e+307
0.0833878     -1.79769e+307 -1.79769e+307
0.0836358     -1.79769e+307 -1.79769e+307
0.08388       -1.79769e+307 -1.79769e+307
0.0841243     -1.79769e+307 -1.79769e+307
0.0843685     -1.79769e+307 -1.79769e+307
0.0846127     -1.79769e+307 -1.79769e+307
0.084857      -1.79769e+307 -1.79769e+307
0.0850973     -1.79769e+307 -1.79769e+307
0.0853377     -1.79769e+307 -1.79769e+307
0.0855781     -1.79769e+307 -1.79769e+307
0.0858184     -1.79769e+307 -1.79769e+307
0.0860548     -1.79769e+307 -1.79769e+307
0.0862912     -1.79769e+307 -1.79769e+307
0.0865275     -1.79769e+307 -1.79769e+307
0.0867639     -1.79769e+307 -1.79769e+307
0.0870002     -1.79769e+307 -1.79769e+307
0.0872366     -1.79769e+307 -1.79769e+307
0.087473      -1.79769e+307 -1.79769e+307
0.0877093     -1.79769e+307 -1.79769e+307
0.0879457     -1.79769e+307 -1.79769e+307
0.088182      -1.79769e+307 -1.79769e+307
0.0884184     -1.79769e+307 -1.79769e+307
0.0886548     -1.79769e+307 -1.79769e+307
0.0888911     -1.79769e+307 -1.79769e+307
0.0891275     -1.79769e+307 -1.79769e+307
0.0893638     -1.79769e+307 -1.79769e+307
0.0896002     -1.79769e+307 -1.79769e+307
0.0898366     -1.79769e+307 -1.79769e+307
0.0900729     -1.79769e+307 -1.79769e+307
0.0903093     -1.79769e+307 -1.79769e+307
0.0905456     -1.79769e+307 -1.79769e+307
0.090782      -1.79769e+307 -1.79769e+307
0.0910183     -1.79769e+307 -1.79769e+307
0.0912547     -1.79769e+307 -1.79769e+307
0.0914911     -1.79769e+307 -1.79769e+307
0.0917274     -1.79769e+307 -1.79769e+307
0.0919638     -1.79769e+307 -1.79769e+307
0.0922001     -1.79769e+307 -1.79769e+307
0.0924365     -1.79769e+307 -1.79769e+307
0.0926805     -1.79769e+307 -1.79769e+307
0.0929245     -1.79769e+307 -1.79769e+307
0.0931772     -1.79769e+307 -1.79769e+307
0.0934299     -1.79769e+307 -1.79769e+307
0.0936927     -1.79769e+307 -1.79769e+307
0.0939555     -1.79769e+307 -1.79769e+307
0.0942302     -1.79769e+307 -1.79769e+307
0.094505      -1.79769e+307 -1.79769e+307
0.0947797     -1.79769e+307 -1.79769e+307
0.0950545     -1.79769e+307 -1.79769e+307
0.0953292     -1.79769e+307 -1.79769e+307
0.095604      -1.79769e+307 -1.79769e+307
0.0958787     -1.79769e+307 -1.79769e+307
0.0961363     -1.79769e+307 -1.79769e+307
0.0963939     -1.79769e+307 -1.79769e+307
0.0966515     -1.79769e+307 -1.79769e+307
0.0969091     -1.79769e+307 -1.79769e+307
0.0971666     -1.79769e+307 -1.79769e+307
0.0974242     -1.79769e+307 -1.79769e+307
0.0976818     -1.79769e+307 -1.79769e+307
0.0979394     -1.79769e+307 -1.79769e+307
0.0981969     -1.79769e+307 -1.79769e+307
0.0984545     -1.79769e+307 -1.79769e+307
0.0987121     -1.79769e+307 -1.79769e+307
0.0989697     -1.79769e+307 -1.79769e+307
0.0992273     -1.79769e+307 -1.79769e+307
0.0994848     -1.79769e+307 -1.79769e+307
0.0997424     -1.79769e+307 -1.79769e+307
0.1           -1.79769e+307 -1.79769e+307
0.100262      -1.79769e+307 -1.79769e+307
0.100524      -1.79769e+307 -1.79769e+307
0.100785      -1.79769e+307 -1.79769e+307
0.101047      -1.79769e+307 -1.79769e+307
0.101309      -1.79769e+307 -1.79769e+307
0.101572      -1.79769e+307 -1.79769e+307
0.101835      -1.79769e+307 -1.79769e+307
0.102098      -1.79769e+307 -1.79769e+307
0.102363      -1.79769e+307 -1.79769e+307
0.102628      -1.79769e+307 -1.79769e+307
0.102892      -1.79769e+307 -1.79769e+307
0.103157      -1.79769e+307 -1.79769e+307
0.103422      -1.79769e+307 -1.79769e+307
0.103688      -1.79769e+307 -1.79769e+307
0.103954      -1.79769e+307 -1.79769e+307
0.10422       -1.79769e+307 -1.79769e+307
0.104486      -1.79769e+307 -1.79769e+307
0.104753      -1.79769e+307 -1.79769e+307
0.105019      -1.79769e+307 -1.79769e+307
0.105285      -1.79769e+307 -1.79769e+307
0.105551      -1.79769e+307 -1.79769e+307
0.105817      -1.79769e+307 -1.79769e+307
0.106083      -1.79769e+307 -1.79769e+307
0.10635       -1.79769e+307 -1.79769e+307
0.106616      -1.79769e+307 -1.79769e+307
0.106882      -1.79769e+307 -1.79769e+307
0.107148      -1.79769e+307 -1.79769e+307
0.107414      -1.79769e+307 -1.79769e+307
0.107682      -1.79769e+307 -1.79769e+307
0.10795       -1.79769e+307 -1.79769e+307
0.108219      -1.79769e+307 -1.79769e+307
0.108489      -1.79769e+307 -1.79769e+307
0.10876       -1.79769e+307 -1.79769e+307
0.109033      -1.79769e+307 -1.79769e+307
0.109306      -1.79769e+307 -1.79769e+307
0.109581      -1.79769e+307 -1.79769e+307
0.109858      -1.79769e+307 -1.79769e+307
0.110135      -1.79769e+307 -1.79769e+307
0.110414      -1.79769e+307 -1.79769e+307
0.110693      -1.79769e+307 -1.79769e+307
0.110971      -1.79769e+307 -1.79769e+307
0.111252      -1.79769e+307 -1.79769e+307
0.111533      -1.79769e+307 -1.79769e+307
0.111814      -1.79769e+307 -1.79769e+307
0.112095      -1.79769e+307 -1.79769e+307
0.112375      -1.79769e+307 -1.79769e+307
0.112656      -1.79769e+307 -1.79769e+307
0.112937      -1.79769e+307 -1.79769e+307
0.113218      -1.79769e+307 -1.79769e+307
0.113498      -1.79769e+307 -1.79769e+307
0.113779      -1.79769e+307 -1.79769e+307
0.11406       -1.79769e+307 -1.79769e+307
0.114334      -1.79769e+307 -1.79769e+307
0.114603      -1.79769e+307 -1.79769e+307
0.114867      -1.79769e+307 -1.79769e+307
0.115129      -1.79769e+307 -1.79769e+307
0.115389      -1.79769e+307 -1.79769e+307
0.115649      -1.79769e+307 -1.79769e+307
0.11591       -1.79769e+307 -1.79769e+307
0.11617       -1.79769e+307 -1.79769e+307
0.11643       -1.79769e+307 -1.79769e+307
0.11669       -1.79769e+307 -1.79769e+307
0.116953      -1.79769e+307 -1.79769e+307
0.117215      -1.79769e+307 -1.79769e+307
0.117477      -1.79769e+307 -1.79769e+307
0.117739      -1.79769e+307 -1.79769e+307
0.118002      -1.79769e+307 -1.79769e+307
0.118262      -1.79769e+307 -1.79769e+307
0.118522      -1.79769e+307 -1.79769e+307
0.118782      -1.79769e+307 -1.79769e+307
0.119042      -1.79769e+307 -1.79769e+307
0.119302      -1.79769e+307 -1.79769e+307
0.119563      -1.79769e+307 -1.79769e+307
0.119823      -1.79769e+307 -1.79769e+307
0.120083      -1.79769e+307 -1.79769e+307
0.120343      -1.79769e+307 -1.79769e+307
0.120601      -1.79769e+307 -1.79769e+307
0.120859      -1.79769e+307 -1.79769e+307
0.121117      -1.79769e+307 -1.79769e+307
0.121372      -1.79769e+307 -1.79769e+307
0.121628      -1.79769e+307 -1.79769e+307
0.121881      -1.79769e+307 -1.79769e+307
0.122135      -1.79769e+307 -1.79769e+307
0.122386      -1.79769e+307 -1.79769e+307
0.122637      -1.79769e+307 -1.79769e+307
0.122885      -1.79769e+307 -1.79769e+307
0.123134      -1.79769e+307 -1.79769e+307
0.123381      -1.79769e+307 -1.79769e+307
0.123625      -1.79769e+307 -1.79769e+307
0.123867      -1.79769e+307 -1.79769e+307
0.124109      -1.79769e+307 -1.79769e+307
0.124349      -1.79769e+307 -1.79769e+307
0.124586      -1.79769e+307 -1.79769e+307
0.124821      -1.79769e+307 -1.79769e+307
0.125054      -1.79769e+307 -1.79769e+307
0.125285      -1.79769e+307 -1.79769e+307
0.125512      -1.79769e+307 -1.79769e+307
0.125737      -1.79769e+307 -1.79769e+307
0.125959      -1.79769e+307 -1.79769e+307
0.12618       -1.79769e+307 -1.79769e+307
0.126397      -1.79769e+307 -1.79769e+307
0.126611      -1.79769e+307 -1.79769e+307
0.126824      -1.79769e+307 -1.79769e+307
0.127034      -1.79769e+307 -1.79769e+307
0.127243      -1.79769e+307 -1.79769e+307
0.127452      -1.79769e+307 -1.79769e+307
0.127659      -1.79769e+307 -1.79769e+307
0.127864      -1.79769e+307 -1.79769e+307
0.128069      -1.79769e+307 -1.79769e+307
0.128272      -1.79769e+307 -1.79769e+307
0.128475      -1.79769e+307 -1.79769e+307
0.128676      -1.79769e+307 -1.79769e+307
0.128877      -1.79769e+307 -1.79769e+307
0.129077      -1.79769e+307 -1.79769e+307
0.129276      -1.79769e+307 -1.79769e+307
0.129475      -1.79769e+307 -1.79769e+307
0.129672      -1.79769e+307 -1.79769e+307
0.12987       -1.79769e+307 -1.79769e+307
0.130067      -1.79769e+307 -1.79769e+307
0.130264      -1.79769e+307 -1.79769e+307
0.130462      -1.79769e+307 -1.79769e+307
0.130659      -1.79769e+307 -1.79769e+307
0.130859      -1.79769e+307 -1.79769e+307
0.131058      -1.79769e+307 -1.79769e+307
0.131259      -1.79769e+307 -1.79769e+307
0.131461      -1.79769e+307 -1.79769e+307
0.131663      -1.79769e+307 -1.79769e+307
0.131862      -1.79769e+307 -1.79769e+307
0.132061      -1.79769e+307 -1.79769e+307
0.13226       -1.79769e+307 -1.79769e+307
0.13246       -1.79769e+307 -1.79769e+307
0.132657      -1.79769e+307 -1.79769e+307
0.132854      -1.79769e+307 -1.79769e+307
0.133051      -1.79769e+307 -1.79769e+307
0.133248      -1.79769e+307 -1.79769e+307
0.133445      -1.79769e+307 -1.79769e+307
0.133642      -1.79769e+307 -1.79769e+307
0.133839      -1.79769e+307 -1.79769e+307
0.134036      -1.79769e+307 -1.79769e+307
0.134234      -1.79769e+307 -1.79769e+307
0.134431      -1.79769e+307 -1.79769e+307
0.13463       -1.79769e+307 -1.79769e+307
0.13483       -1.79769e+307 -1.79769e+307
0.135029      -1.79769e+307 -1.79769e+307
0.135229      -1.79769e+307 -1.79769e+307
0.135429      -1.79769e+307 -1.79769e+307
0.135631      -1.79769e+307 -1.79769e+307
0.135833      -1.79769e+307 -1.79769e+307
0.136036      -1.79769e+307 -1.79769e+307
0.136238      -1.79769e+307 -1.79769e+307
0.136444      -1.79769e+307 -1.79769e+307
0.136649      -1.79769e+307 -1.79769e+307
0.136854      -1.79769e+307 -1.79769e+307
0.137063      -1.79769e+307 -1.79769e+307
0.137272      -1.79769e+307 -1.79769e+307
0.13748       -1.79769e+307 -1.79769e+307
0.137693      -1.79769e+307 -1.79769e+307
0.137905      -1.79769e+307 -1.79769e+307
0.138117      -1.79769e+307 -1.79769e+307
0.138333      -1.79769e+307 -1.79769e+307
0.138549      -1.79769e+307 -1.79769e+307
0.138765      -1.79769e+307 -1.79769e+307
0.138985      -1.79769e+307 -1.79769e+307
0.139206      -1.79769e+307 -1.79769e+307
0.139426      -1.79769e+307 -1.79769e+307
0.139646      -1.79769e+307 -1.79769e+307
0.139871      -1.79769e+307 -1.79769e+307
0.140096      -1.79769e+307 -1.79769e+307
0.140322      -1.79769e+307 -1.79769e+307
0.140547      -1.79769e+307 -1.79769e+307
0.140772      -1.79769e+307 -1.79769e+307
0.140997      -1.79769e+307 -1.79769e+307
0.141222      -1.79769e+307 -1.79769e+307
0.141447      -1.79769e+307 -1.79769e+307
0.141672      -1.79769e+307 -1.79769e+307
0.141897      -1.79769e+307 -1.79769e+307
0.142122      -1.79769e+307 -1.79769e+307
0.142347      -1.79769e+307 -1.79769e+307
0.142572      -1.79769e+307 -1.79769e+307
0.142797      -1.79769e+307 -1.79769e+307
0.143022      -1.79769e+307 -1.79769e+307
0.143248      -1.79769e+307 -1.79769e+307
0.143473      -1.79769e+307 -1.79769e+307
0.143698      -1.79769e+307 -1.79769e+307
0.143923      -1.79769e+307 -1.79769e+307
0.144148      -1.79769e+307 -1.79769e+307
0.144373      -1.79769e+307 -1.79769e+307
0.144598      -1.79769e+307 -1.79769e+307
0.144823      -1.79769e+307 -1.79769e+307
0.145048      -1.79769e+307 -1.79769e+307
0.145273      -1.79769e+307 -1.79769e+307
0.145498      -1.79769e+307 -1.79769e+307
0.145723      -1.79769e+307 -1.79769e+307
0.145949      -1.79769e+307 -1.79769e+307
0.146174      -1.79769e+307 -1.79769e+307
0.146399      -1.79769e+307 -1.79769e+307
0.146624      -1.79769e+307 -1.79769e+307
0.146849      -1.79769e+307 -1.79769e+307
0.147074      -1.79769e+307 -1.79769e+307
0.147299      -1.79769e+307 -1.79769e+307
0.147524      -1.79769e+307 -1.79769e+307
0.147749      -1.79769e+307 -1.79769e+307
0.147974      -1.79769e+307 -1.79769e+307
0.148199      -1.79769e+307 -1.79769e+307
0.148424      -1.79769e+307 -1.79769e+307
0.14865       -1.79769e+307 -1.79769e+307
0.148875      -1.79769e+307 -1.79769e+307
0.1491        -1.79769e+307 -1.79769e+307
0.149325      -1.79769e+307 -1.79769e+307
0.14955       -1.79769e+307 -1.79769e+307