# Probe 0 (0 9.95 19.77)
# Probe 1 (0 -9.95 19.77)
# Time        0             1            
0             -1.79769e+307 -1.79769e+307
0.00119048    -1.79769e+307 -1.79769e+307
0.00123517    -1.79769e+307 -1.79769e+307
0.00128876    -1.79769e+307 -1.79769e+307
0.00135302    -1.79769e+307 -1.79769e+307
0.00143012    -1.79769e+307 -1.79769e+307
0.00152263    -1.79769e+307 -1.79769e+307
0.00163206    -1.79769e+307 -1.79769e+307
0.00174325    -1.79769e+307 -1.79769e+307
0.0018568     -1.79769e+307 -1.79769e+307
0.00197422    -1.79769e+307 -1.79769e+307
0.00209642    -1.79769e+307 -1.79769e+307
0.00222417    -1.79769e+307 -1.79769e+307
0.00235799    -1.79769e+307 -1.79769e+307
0.00249812    -1.79769e+307 -1.79769e+307
0.00264518    -1.79769e+307 -1.79769e+307
0.00279994    -1.79769e+307 -1.79769e+307
0.00296269    -1.79769e+307 -1.79769e+307
0.00313374    -1.79769e+307 -1.79769e+307
0.00331399    -1.79769e+307 -1.79769e+307
0.00350377    -1.79769e+307 -1.79769e+307
0.00369996    -1.79769e+307 -1.79769e+307
0.0038945     -1.79769e+307 -1.79769e+307
0.00408741    -1.79769e+307 -1.79769e+307
0.00427871    -1.79769e+307 -1.79769e+307
0.00446764    -1.79769e+307 -1.79769e+307
0.00465502    -1.79769e+307 -1.79769e+307
0.0048401     -1.79769e+307 -1.79769e+307
0.00502368    -1.79769e+307 -1.79769e+307
0.00520577    -1.79769e+307 -1.79769e+307
0.0053886     -1.79769e+307 -1.79769e+307
0.00557371    -1.79769e+307 -1.79769e+307
0.00576116    -1.79769e+307 -1.79769e+307
0.00595267    -1.79769e+307 -1.79769e+307
0.00614844    -1.79769e+307 -1.79769e+307
0.00634867    -1.79769e+307 -1.79769e+307
0.00655361    -1.79769e+307 -1.79769e+307
0.0067635     -1.79769e+307 -1.79769e+307
0.00697754    -1.79769e+307 -1.79769e+307
0.00719593    -1.79769e+307 -1.79769e+307
0.00741886    -1.79769e+307 -1.79769e+307
0.00764536    -1.79769e+307 -1.79769e+307
0.00787555    -1.79769e+307 -1.79769e+307
0.00810957    -1.79769e+307 -1.79769e+307
0.00834624    -1.79769e+307 -1.79769e+307
0.00858563    -1.79769e+307 -1.79769e+307
0.00882782    -1.79769e+307 -1.79769e+307
0.00907289    -1.79769e+307 -1.79769e+307
0.00932094    -1.79769e+307 -1.79769e+307
0.0095736     -1.79769e+307 -1.79769e+307
0.00982946    -1.79769e+307 -1.79769e+307
0.0100886     -1.79769e+307 -1.79769e+307
0.0103512     -1.79769e+307 -1.79769e+307
0.0106155     -1.79769e+307 -1.79769e+307
0.0108835     -1.79769e+307 -1.79769e+307
0.0111532     -1.79769e+307 -1.79769e+307
0.0114268     -1.79769e+307 -1.79769e+307
0.0117023     -1.79769e+307 -1.79769e+307
0.0119819     -1.79769e+307 -1.79769e+307
0.0122614     -1.79769e+307 -1.79769e+307
0.0125452     -1.79769e+307 -1.79769e+307
0.0128311     -1.79769e+307 -1.79769e+307
0.0131192     -1.79769e+307 -1.79769e+307
0.0134119     -1.79769e+307 -1.79769e+307
0.0137094     -1.79769e+307 -1.79769e+307
0.0140118     -1.79769e+307 -1.79769e+307
0.014322      -1.79769e+307 -1.79769e+307
0.0146406     -1.79769e+307 -1.79769e+307
0.014968      -1.79769e+307 -1.79769e+307
0.0153081     -1.79769e+307 -1.79769e+307
0.0156585     -1.79769e+307 -1.79769e+307
0.0160163     -1.79769e+307 -1.79769e+307
0.0163817     -1.79769e+307 -1.79769e+307
0.0167511     -1.79769e+307 -1.79769e+307
0.0171247     -1.79769e+307 -1.79769e+307
0.0175026     -1.79769e+307 -1.79769e+307
0.0178804     -1.79769e+307 -1.79769e+307
0.0182628     -1.79769e+307 -1.79769e+307
0.0186452     -1.79769e+307 -1.79769e+307
0.0190276     -1.79769e+307 -1.79769e+307
0.0194099     -1.79769e+307 -1.79769e+307
0.0197923     -1.79769e+307 -1.79769e+307
0.0201747     -1.79769e+307 -1.79769e+307
0.0205571     -1.79769e+307 -1.79769e+307
0.0209345     -1.79769e+307 -1.79769e+307
0.021312      -1.79769e+307 -1.79769e+307
0.0216895     -1.79769e+307 -1.79769e+307
0.022062      -1.79769e+307 -1.79769e+307
0.0224296     -1.79769e+307 -1.79769e+307
0.0227972     -1.79769e+307 -1.79769e+307
0.023146      -1.79769e+307 -1.79769e+307
0.0234695     -1.79769e+307 -1.79769e+307
0.023778      -1.79769e+307 -1.79769e+307
0.0240694     -1.79769e+307 -1.79769e+307
0.0243482     -1.79769e+307 -1.79769e+307
0.0246154     -1.79769e+307 -1.79769e+307
0.0248744     -1.79769e+307 -1.79769e+307
0.0251232     -1.79769e+307 -1.79769e+307
0.0253647     -1.79769e+307 -1.79769e+307
0.0255993     -1.79769e+307 -1.79769e+307
0.0258274     -1.79769e+307 -1.79769e+307
0.0260512     -1.79769e+307 -1.79769e+307
0.0262709     -1.79769e+307 -1.79769e+307
0.0264866     -1.79769e+307 -1.79769e+307
0.0267004     -1.79769e+307 -1.79769e+307
0.0269103     -1.79769e+307 -1.79769e+307
0.0271183     -1.79769e+307 -1.79769e+307
0.0273244     -1.79769e+307 -1.79769e+307
0.0275287     -1.79769e+307 -1.79769e+307
0.0277312     -1.79769e+307 -1.79769e+307
0.0279318     -1.79769e+307 -1.79769e+307
0.0281306     -1.79769e+307 -1.79769e+307
0.0283294     -1.79769e+307 -1.79769e+307
0.0285264     -1.79769e+307 -1.79769e+307
0.0287234     -1.79769e+307 -1.79769e+307
0.0289204     -1.79769e+307 -1.79769e+307
0.0291174     -1.79769e+307 -1.79769e+307
0.0293144     -1.79769e+307 -1.79769e+307
0.0295114     -1.79769e+307 -1.79769e+307
0.0297085     -1.79769e+307 -1.79769e+307
0.0299074     -1.79769e+307 -1.79769e+307
0.0301063     -1.79769e+307 -1.79769e+307
0.0303053     -1.79769e+307 -1.79769e+307
0.0305062     -1.79769e+307 -1.79769e+307
0.0307072     -1.79769e+307 -1.79769e+307
0.0309103     -1.79769e+307 -1.79769e+307
0.0311134     -1.79769e+307 -1.79769e+307
0.0313164     -1.79769e+307 -1.79769e+307
0.0315218     -1.79769e+307 -1.79769e+307
0.0317271     -1.79769e+307 -1.79769e+307
0.0319347     -1.79769e+307 -1.79769e+307
0.0321424     -1.79769e+307 -1.79769e+307
0.0323525     -1.79769e+307 -1.79769e+307
0.0325625     -1.79769e+307 -1.79769e+307
0.0327726     -1.79769e+307 -1.79769e+307
0.0329853     -1.79769e+307 -1.79769e+307
0.033198      -1.79769e+307 -1.79769e+307
0.0334107     -1.79769e+307 -1.79769e+307
0.0336261     -1.79769e+307 -1.79769e+307
0.0338416     -1.79769e+307 -1.79769e+307
0.034057      -1.79769e+307 -1.79769e+307
0.0342754     -1.79769e+307 -1.79769e+307
0.0344938     -1.79769e+307 -1.79769e+307
0.0347122     -1.79769e+307 -1.79769e+307
0.0349306     -1.79769e+307 -1.79769e+307
0.0351522     -1.79769e+307 -1.79769e+307
0.0353738     -1.79769e+307 -1.79769e+307
0.0355954     -1.79769e+307 -1.79769e+307
0.035817      -1.79769e+307 -1.79769e+307
0.0360387     -1.79769e+307 -1.79769e+307
0.0362603     -1.79769e+307 -1.79769e+307
0.0364855     -1.79769e+307 -1.79769e+307
0.0367107     -1.79769e+307 -1.79769e+307
0.036936      -1.79769e+307 -1.79769e+307
0.0371612     -1.79769e+307 -1.79769e+307
0.0373865     -1.79769e+307 -1.79769e+307
0.0376117     -1.79769e+307 -1.79769e+307
0.037837      -1.79769e+307 -1.79769e+307
0.0380622     -1.79769e+307 -1.79769e+307
0.0382874     -1.79769e+307 -1.79769e+307
0.0385127     -1.79769e+307 -1.79769e+307
0.0387379     -1.79769e+307 -1.79769e+307
0.0389632     -1.79769e+307 -1.79769e+307
0.0391884     -1.79769e+307 -1.79769e+307
0.0394136     -1.79769e+307 -1.79769e+307
0.0396389     -1.79769e+307 -1.79769e+307
0.0398641     -1.79769e+307 -1.79769e+307
0.0400894     -1.79769e+307 -1.79769e+307
0.0403096     -1.79769e+307 -1.79769e+307
0.0405298     -1.79769e+307 -1.79769e+307
0.0407501     -1.79769e+307 -1.79769e+307
0.0409703     -1.79769e+307 -1.79769e+307
0.0411853     -1.79769e+307 -1.79769e+307
0.0413952     -1.79769e+307 -1.79769e+307
0.0416051     -1.79769e+307 -1.79769e+307
0.0418098     -1.79769e+307 -1.79769e+307
0.0420146     -1.79769e+307 -1.79769e+307
0.0422193     -1.79769e+307 -1.79769e+307
0.0424241     -1.79769e+307 -1.79769e+307
0.0426288     -1.79769e+307 -1.79769e+307
0.0428336     -1.79769e+307 -1.79769e+307
0.0430383     -1.79769e+307 -1.79769e+307
0.0432431     -1.79769e+307 -1.79769e+307
0.0434542     -1.79769e+307 -1.79769e+307
0.0436654     -1.79769e+307 -1.79769e+307
0.0438766     -1.79769e+307 -1.79769e+307
0.0440877     -1.79769e+307 -1.79769e+307
0.0442989     -1.79769e+307 -1.79769e+307
0.04451       -1.79769e+307 -1.79769e+307
0.0447212     -1.79769e+307 -1.79769e+307
0.0449411     -1.79769e+307 -1.79769e+307
0.0451611     -1.79769e+307 -1.79769e+307
0.045381      -1.79769e+307 -1.79769e+307
0.045601      -1.79769e+307 -1.79769e+307
0.0458209     -1.79769e+307 -1.79769e+307
0.0460409     -1.79769e+307 -1.79769e+307
0.0462608     -1.79769e+307 -1.79769e+307
0.0464808     -1.79769e+307 -1.79769e+307
0.0467007     -1.79769e+307 -1.79769e+307
0.0469207     -1.79769e+307 -1.79769e+307
0.0471406     -1.79769e+307 -1.79769e+307
0.0473606     -1.79769e+307 -1.79769e+307
0.0475805     -1.79769e+307 -1.79769e+307
0.0478005     -1.79769e+307 -1.79769e+307
0.0480204     -1.79769e+307 -1.79769e+307
0.0482404     -1.79769e+307 -1.79769e+307
0.0484603     -1.79769e+307 -1.79769e+307
0.0486803     -1.79769e+307 -1.79769e+307
0.0489002     -1.79769e+307 -1.79769e+307
0.0491202     -1.79769e+307 -1.79769e+307
0.0493401     -1.79769e+307 -1.79769e+307
0.0495601     -1.79769e+307 -1.79769e+307
0.04978       -1.79769e+307 -1.79769e+307
0.05          -1.79769e+307 -1.79769e+307
0.0502618     -1.79769e+307 -1.79769e+307
0.0505263     -1.79769e+307 -1.79769e+307
0.0507938     -1.79769e+307 -1.79769e+307
0.0510627     -1.79769e+307 -1.79769e+307
0.0513345     -1.79769e+307 -1.79769e+307
0.0516095     -1.79769e+307 -1.79769e+307
0.051886      -1.79769e+307 -1.79769e+307
0.0521657     -1.79769e+307 -1.79769e+307
0.0524455     -1.79769e+307 -1.79769e+307
0.0527252     -1.79769e+307 -1.79769e+307
0.0530066     -1.79769e+307 -1.79769e+307
0.053288      -1.79769e+307 -1.79769e+307
0.0535694     -1.79769e+307 -1.79769e+307
0.0538508     -1.79769e+307 -1.79769e+307
0.0541305     -1.79769e+307 -1.79769e+307
0.0544102     -1.79769e+307 -1.79769e+307
0.0546865     -1.79769e+307 -1.79769e+307
0.0549628     -1.79769e+307 -1.79769e+307
0.0552374     -1.79769e+307 -1.79769e+307
0.0555103     -1.79769e+307 -1.79769e+307
0.0557833     -1.79769e+307 -1.79769e+307
0.0560545     -1.79769e+307 -1.79769e+307
0.0563258     -1.79769e+307 -1.79769e+307
0.0565971     -1.79769e+307 -1.79769e+307
0.0568667     -1.79769e+307 -1.79769e+307
0.0571362     -1.79769e+307 -1.79769e+307
0.0574058     -1.79769e+307 -1.79769e+307
0.0576737     -1.79769e+307 -1.79769e+307
0.0579416     -1.79769e+307 -1.79769e+307
0.0582095     -1.79769e+307 -1.79769e+307
0.0584774     -1.79769e+307 -1.79769e+307
0.0587453     -1.79769e+307 -1.79769e+307
0.0590132     -1.79769e+307 -1.79769e+307
0.0592793     -1.79769e+307 -1.79769e+307
0.0595455     -1.79769e+307 -1.79769e+307
0.0598116     -1.79769e+307 -1.79769e+307
0.0600777     -1.79769e+307 -1.79769e+307
0.0603439     -1.79769e+307 -1.79769e+307
0.06061       -1.79769e+307 -1.79769e+307
0.0608762     -1.79769e+307 -1.79769e+307
0.0611423     -1.79769e+307 -1.79769e+307
0.0614085     -1.79769e+307 -1.79769e+307
0.0616765     -1.79769e+307 -1.79769e+307
0.0619445     -1.79769e+307 -1.79769e+307
0.0622125     -1.79769e+307 -1.79769e+307
0.0624805     -1.79769e+307 -1.79769e+307
0.0627485     -1.79769e+307 -1.79769e+307
0.0630184     -1.79769e+307 -1.79769e+307
0.0632884     -1.79769e+307 -1.79769e+307
0.0635583     -1.79769e+307 -1.79769e+307
0.0638282     -1.79769e+307 -1.79769e+307
0.0641002     -1.79769e+307 -1.79769e+307
0.0643722     -1.79769e+307 -1.79769e+307
0.0646441     -1.79769e+307 -1.79769e+307
0.0649182     -1.79769e+307 -1.79769e+307
0.0651923     -1.79769e+307 -1.79769e+307
0.0654664     -1.79769e+307 -1.79769e+307
0.0657426     -1.79769e+307 -1.79769e+307
0.0660189     -1.79769e+307 -1.79769e+307
0.0662974     -1.79769e+307 -1.79769e+307
0.0665783     -1.79769e+307 -1.79769e+307
0.0668591     -1.79769e+307 -1.79769e+307
0.0671424     -1.79769e+307 -1.79769e+307
0.0674281     -1.79769e+307 -1.79769e+307
0.0677138     -1.79769e+307 -1.79769e+307
0.0680021     -1.79769e+307 -1.79769e+307
0.068293      -1.79769e+307 -1.79769e+307
0.0685839     -1.79769e+307 -1.79769e+307
0.0688775     -1.79769e+307 -1.79769e+307
0.0691739     -1.79769e+307 -1.79769e+307
0.0694703     -1.79769e+307 -1.79769e+307
0.0697696     -1.79769e+307 -1.79769e+307
0.0700719     -1.79769e+307 -1.79769e+307
0.0703742     -1.79769e+307 -1.79769e+307
0.0706796     -1.79769e+307 -1.79769e+307
0.0709851     -1.79769e+307 -1.79769e+307
0.0712905     -1.79769e+307 -1.79769e+307
0.0715992     -1.79769e+307 -1.79769e+307
0.0719079     -1.79769e+307 -1.79769e+307
0.0722166     -1.79769e+307 -1.79769e+307
0.0725288     -1.79769e+307 -1.79769e+307
0.0728409     -1.79769e+307 -1.79769e+307
0.0731531     -1.79769e+307 -1.79769e+307
0.0734653     -1.79769e+307 -1.79769e+307
0.0737775     -1.79769e+307 -1.79769e+307
0.0740934     -1.79769e+307 -1.79769e+307
0.0744093     -1.79769e+307 -1.79769e+307
0.0747292     -1.79769e+307 -1.79769e+307
0.0750491     -1.79769e+307 -1.79769e+307
0.0753731     -1.79769e+307 -1.79769e+307
0.0756972     -1.79769e+307 -1.79769e+307
0.0760256     -1.79769e+307 -1.79769e+307
0.076354      -1.79769e+307 -1.79769e+307
0.0766824     -1.79769e+307 -1.79769e+307
0.0769933     -1.79769e+307 -1.79769e+307
0.0773085     -1.79769e+307 -1.79769e+307
0.0776422     -1.79769e+307 -1.79769e+307
0.0779861     -1.79769e+307 -1.79769e+307
0.0783356     -1.79769e+307 -1.79769e+307
0.0786907     -1.79769e+307 -1.79769e+307
0.0790519     -1.79769e+307 -1.79769e+307
0.0794131     -1.79769e+307 -1.79769e+307
0.0797743     -1.79769e+307 -1.79769e+307
0.0801291     -1.79769e+307 -1.79769e+307
0.0804839     -1.79769e+307 -1.79769e+307
0.0808324     -1.79769e+307 -1.79769e+307
0.0811747     -1.79769e+307 -1.79769e+307
0.0815109     -1.79769e+307 -1.79769e+307
0.081841      -1.79769e+307 -1.79769e+307
0.0821653     -1.79769e+307 -1.79769e+307
0.0824838     -1.79769e+307 -1.79769e+307
0.0827966     -1.79769e+307 -1.79769e+307
0.0831038     -1.79769e+307 -1.79769e+307
0.083411      -1.79769e+307 -1.79769e+307
0.0837126     -1.79769e+307 -1.79769e+307
0.0840087     -1.79769e+307 -1.79769e+307
0.0843049     -1.79769e+307 -1.79769e+307
0.0845955     -1.79769e+307 -1.79769e+307
0.0848808     -1.79769e+307 -1.79769e+307
0.0851661     -1.79769e+307 -1.79769e+307
0.0854459     -1.79769e+307 -1.79769e+307
0.0857258     -1.79769e+307 -1.79769e+307
0.0860003     -1.79769e+307 -1.79769e+307
0.0862748     -1.79769e+307 -1.79769e+307
0.086544      -1.79769e+307 -1.79769e+307
0.0868078     -1.79769e+307 -1.79769e+307
0.0870716     -1.79769e+307 -1.79769e+307
0.0873302     -1.79769e+307 -1.79769e+307
0.0875836     -1.79769e+307 -1.79769e+307
0.0878319     -1.79769e+307 -1.79769e+307
0.0880753     -1.79769e+307 -1.79769e+307
0.0883138     -1.79769e+307 -1.79769e+307
0.0885523     -1.79769e+307 -1.79769e+307
0.0887908     -1.79769e+307 -1.79769e+307
0.0890243     -1.79769e+307 -1.79769e+307
0.0892578     -1.79769e+307 -1.79769e+307
0.0894914     -1.79769e+307 -1.79769e+307
0.0897249     -1.79769e+307 -1.79769e+307
0.0899584     -1.79769e+307 -1.79769e+307
0.0901919     -1.79769e+307 -1.79769e+307
0.0904255     -1.79769e+307 -1.79769e+307
0.090659      -1.79769e+307 -1.79769e+307
0.0908925     -1.79769e+307 -1.79769e+307
0.091126      -1.79769e+307 -1.79769e+307
0.0913596     -1.79769e+307 -1.79769e+307
0.0915931     -1.79769e+307 -1.79769e+307
0.0918266     -1.79769e+307 -1.79769e+307
0.0920601     -1.79769e+307 -1.79769e+307
0.0922937     -1.79769e+307 -1.79769e+307
0.0925272     -1.79769e+307 -1.79769e+307
0.0927607     -1.79769e+307 -1.79769e+307
0.0929942     -1.79769e+307 -1.79769e+307
0.0932278     -1.79769e+307 -1.79769e+307
0.0934613     -1.79769e+307 -1.79769e+307
0.0936948     -1.79769e+307 -1.79769e+307
0.0939283     -1.79769e+307 -1.79769e+307
0.0941619     -1.79769e+307 -1.79769e+307
0.0943954     -1.79769e+307 -1.79769e+307
0.0946289     -1.79769e+307 -1.79769e+307
0.0948527     -1.79769e+307 -1.79769e+307
0.0950765     -1.79769e+307 -1.79769e+307
0.0953003     -1.79769e+307 -1.79769e+307
0.0955241     -1.79769e+307 -1.79769e+307
0.0957479     -1.79769e+307 -1.79769e+307
0.0959717     -1.79769e+307 -1.79769e+307
0.0961955     -1.79769e+307 -1.79769e+307
0.0964193     -1.79769e+307 -1.79769e+307
0.0966431     -1.79769e+307 -1.79769e+307
0.0968669     -1.79769e+307 -1.79769e+307
0.0970907     -1.79769e+307 -1.79769e+307
0.0973145     -1.79769e+307 -1.79769e+307
0.0975383     -1.79769e+307 -1.79769e+307
0.097762      -1.79769e+307 -1.79769e+307
0.0979858     -1.79769e+307 -1.79769e+307
0.0982096     -1.79769e+307 -1.79769e+307
0.0984334     -1.79769e+307 -1.79769e+307
0.0986572     -1.79769e+307 -1.79769e+307
0.098881      -1.79769e+307 -1.79769e+307
0.0991048     -1.79769e+307 -1.79769e+307
0.0993286     -1.79769e+307 -1.79769e+307
0.0995524     -1.79769e+307 -1.79769e+307
0.0997762     -1.79769e+307 -1.79769e+307
0.1           -1.79769e+307 -1.79769e+307
0.100229      -1.79769e+307 -1.79769e+307
0.10046       -1.79769e+307 -1.79769e+307
0.10069       -1.79769e+307 -1.79769e+307
0.100921      -1.79769e+307 -1.79769e+307
0.101151      -1.79769e+307 -1.79769e+307
0.101381      -1.79769e+307 -1.79769e+307
0.101612      -1.79769e+307 -1.79769e+307
0.101843      -1.79769e+307 -1.79769e+307
0.102075      -1.79769e+307 -1.79769e+307
0.102306      -1.79769e+307 -1.79769e+307
0.102538      -1.79769e+307 -1.79769e+307
0.102769      -1.79769e+307 -1.79769e+307
0.103002      -1.79769e+307 -1.79769e+307
0.103235      -1.79769e+307 -1.79769e+307
0.103467      -1.79769e+307 -1.79769e+307
0.1037        -1.79769e+307 -1.79769e+307
0.103933      -1.79769e+307 -1.79769e+307
0.104165      -1.79769e+307 -1.79769e+307
0.104399      -1.79769e+307 -1.79769e+307
0.104633      -1.79769e+307 -1.79769e+307
0.104867      -1.79769e+307 -1.79769e+307
0.105101      -1.79769e+307 -1.79769e+307
0.105335      -1.79769e+307 -1.79769e+307
0.105569      -1.79769e+307 -1.79769e+307
0.105802      -1.79769e+307 -1.79769e+307
0.106036      -1.79769e+307 -1.79769e+307
0.10627       -1.79769e+307 -1.79769e+307
0.106504      -1.79769e+307 -1.79769e+307
0.106738      -1.79769e+307 -1.79769e+307
0.106972      -1.79769e+307 -1.79769e+307
0.107206      -1.79769e+307 -1.79769e+307
0.107439      -1.79769e+307 -1.79769e+307
0.107673      -1.79769e+307 -1.79769e+307
0.107907      -1.79769e+307 -1.79769e+307
0.108141      -1.79769e+307 -1.79769e+307
0.108375      -1.79769e+307 -1.79769e+307
0.108609      -1.79769e+307 -1.79769e+307
0.108842      -1.79769e+307 -1.79769e+307
0.109076      -1.79769e+307 -1.79769e+307
0.10931       -1.79769e+307 -1.79769e+307
0.109544      -1.79769e+307 -1.79769e+307
0.109778      -1.79769e+307 -1.79769e+307
0.110012      -1.79769e+307 -1.79769e+307
0.110246      -1.79769e+307 -1.79769e+307
0.110479      -1.79769e+307 -1.79769e+307
0.110713      -1.79769e+307 -1.79769e+307
0.110947      -1.79769e+307 -1.79769e+307
0.111181      -1.79769e+307 -1.79769e+307
0.111415      -1.79769e+307 -1.79769e+307
0.111649      -1.79769e+307 -1.79769e+307
0.111883      -1.79769e+307 -1.79769e+307
0.112115      -1.79769e+307 -1.79769e+307
0.112347      -1.79769e+307 -1.79769e+307
0.112578      -1.79769e+307 -1.79769e+307
0.112809      -1.79769e+307 -1.79769e+307
0.113039      -1.79769e+307 -1.79769e+307
0.113268      -1.79769e+307 -1.79769e+307
0.113498      -1.79769e+307 -1.79769e+307
0.113728      -1.79769e+307 -1.79769e+307
0.113957      -1.79769e+307 -1.79769e+307
0.114187      -1.79769e+307 -1.79769e+307
0.114416      -1.79769e+307 -1.79769e+307
0.114644      -1.79769e+307 -1.79769e+307
0.114873      -1.79769e+307 -1.79769e+307
0.115101      -1.79769e+307 -1.79769e+307
0.115329      -1.79769e+307 -1.79769e+307
0.115557      -1.79769e+307 -1.79769e+307
0.115786      -1.79769e+307 -1.79769e+307
0.116016      -1.79769e+307 -1.79769e+307
0.116246      -1.79769e+307 -1.79769e+307
0.116475      -1.79769e+307 -1.79769e+307
0.116705      -1.79769e+307 -1.79769e+307
0.116935      -1.79769e+307 -1.79769e+307
0.117164      -1.79769e+307 -1.79769e+307
0.117394      -1.79769e+307 -1.79769e+307
0.117623      -1.79769e+307 -1.79769e+307
0.117853      -1.79769e+307 -1.79769e+307
0.118083      -1.79769e+307 -1.79769e+307
0.118314      -1.79769e+307 -1.79769e+307
0.118545      -1.79769e+307 -1.79769e+307
0.11878       -1.79769e+307 -1.79769e+307
0.119017      -1.79769e+307 -1.79769e+307
0.119257      -1.79769e+307 -1.79769e+307
0.119501      -1.79769e+307 -1.79769e+307
0.119749      -1.79769e+307 -1.79769e+307
0.120001      -1.79769e+307 -1.79769e+307
0.120257      -1.79769e+307 -1.79769e+307
0.120516      -1.79769e+307 -1.79769e+307
0.120779      -1.79769e+307 -1.79769e+307
0.121045      -1.79769e+307 -1.79769e+307
0.121313      -1.79769e+307 -1.79769e+307
0.121583      -1.79769e+307 -1.79769e+307
0.121857      -1.79769e+307 -1.79769e+307
0.122133      -1.79769e+307 -1.79769e+307
0.122408      -1.79769e+307 -1.79769e+307
0.122687      -1.79769e+307 -1.79769e+307
0.122969      -1.79769e+307 -1.79769e+307
0.123253      -1.79769e+307 -1.79769e+307
0.123538      -1.79769e+307 -1.79769e+307
0.123825      -1.79769e+307 -1.79769e+307
0.124116      -1.79769e+307 -1.79769e+307
0.124407      -1.79769e+307 -1.79769e+307
0.124701      -1.79769e+307 -1.79769e+307
0.124999      -1.79769e+307 -1.79769e+307
0.125297      -1.79769e+307 -1.79769e+307
0.125598      -1.79769e+307 -1.79769e+307
0.125899      -1.79769e+307 -1.79769e+307
0.126204      -1.79769e+307 -1.79769e+307
0.126509      -1.79769e+307 -1.79769e+307
0.126818      -1.79769e+307 -1.79769e+307
0.127132      -1.79769e+307 -1.79769e+307
0.127445      -1.79769e+307 -1.79769e+307
0.127763      -1.79769e+307 -1.79769e+307
0.12808       -1.79769e+307 -1.79769e+307
0.128403      -1.79769e+307 -1.79769e+307
0.128725      -1.79769e+307 -1.79769e+307
0.129052      -1.79769e+307 -1.79769e+307
0.12938       -1.79769e+307 -1.79769e+307
0.129712      -1.79769e+307 -1.79769e+307
0.13005       -1.79769e+307 -1.79769e+307
0.130388      -1.79769e+307 -1.79769e+307
0.130727      -1.79769e+307 -1.79769e+307
0.131065      -1.79769e+307 -1.79769e+307
0.131397      -1.79769e+307 -1.79769e+307
0.131729      -1.79769e+307 -1.79769e+307
0.132061      -1.79769e+307 -1.79769e+307
0.132387      -1.79769e+307 -1.79769e+307
0.132714      -1.79769e+307 -1.79769e+307
0.13304       -1.79769e+307 -1.79769e+307
0.133366      -1.79769e+307 -1.79769e+307
0.133686      -1.79769e+307 -1.79769e+307
0.134006      -1.79769e+307 -1.79769e+307
0.134326      -1.79769e+307 -1.79769e+307
0.134645      -1.79769e+307 -1.79769e+307
0.134965      -1.79769e+307 -1.79769e+307
0.135285      -1.79769e+307 -1.79769e+307
0.135605      -1.79769e+307 -1.79769e+307
0.135925      -1.79769e+307 -1.79769e+307
0.136245      -1.79769e+307 -1.79769e+307
0.136565      -1.79769e+307 -1.79769e+307
0.136885      -1.79769e+307 -1.79769e+307
0.137205      -1.79769e+307 -1.79769e+307
0.137524      -1.79769e+307 -1.79769e+307
0.137844      -1.79769e+307 -1.79769e+307
0.138164      -1.79769e+307 -1.79769e+307
0.138484      -1.79769e+307 -1.79769e+307
0.138804      -1.79769e+307 -1.79769e+307
0.139124      -1.79769e+307 -1.79769e+307
0.139444      -1.79769e+307 -1.79769e+307
0.139764      -1.79769e+307 -1.79769e+307
0.140084      -1.79769e+307 -1.79769e+307
0.140403      -1.79769e+307 -1.79769e+307
0.140723      -1.79769e+307 -1.79769e+307
0.141043      -1.79769e+307 -1.79769e+307
0.141363      -1.79769e+307 -1.79769e+307
0.141683      -1.79769e+307 -1.79769e+307
0.142003      -1.79769e+307 -1.79769e+307
0.142323      -1.79769e+307 -1.79769e+307
0.142643      -1.79769e+307 -1.79769e+307
0.142962      -1.79769e+307 -1.79769e+307
0.143282      -1.79769e+307 -1.79769e+307
0.143602      -1.79769e+307 -1.79769e+307
0.143922      -1.79769e+307 -1.79769e+307
0.144242      -1.79769e+307 -1.79769e+307
0.144562      -1.79769e+307 -1.79769e+307
0.144882      -1.79769e+307 -1.79769e+307
0.145202      -1.79769e+307 -1.79769e+307
0.145522      -1.79769e+307 -1.79769e+307
0.145841      -1.79769e+307 -1.79769e+307
0.146161      -1.79769e+307 -1.79769e+307
0.146481      -1.79769e+307 -1.79769e+307
0.146801      -1.79769e+307 -1.79769e+307
0.147121      -1.79769e+307 -1.79769e+307
0.147441      -1.79769e+307 -1.79769e+307
0.147761      -1.79769e+307 -1.79769e+307
0.148081      -1.79769e+307 -1.79769e+307
0.148401      -1.79769e+307 -1.79769e+307
0.14872       -1.79769e+307 -1.79769e+307
0.14904       -1.79769e+307 -1.79769e+307
0.14936       -1.79769e+307 -1.79769e+307
0.14968       -1.79769e+307 -1.79769e+307
0.15          -1.79769e+307 -1.79769e+307
0.150318      -1.79769e+307 -1.79769e+307
0.150637      -1.79769e+307 -1.79769e+307
0.150955      -1.79769e+307 -1.79769e+307
0.151274      -1.79769e+307 -1.79769e+307
0.151592      -1.79769e+307 -1.79769e+307
0.151911      -1.79769e+307 -1.79769e+307
0.152229      -1.79769e+307 -1.79769e+307
0.152548      -1.79769e+307 -1.79769e+307
0.152866      -1.79769e+307 -1.79769e+307
0.153185      -1.79769e+307 -1.79769e+307
0.153505      -1.79769e+307 -1.79769e+307
0.153826      -1.79769e+307 -1.79769e+307
0.154147      -1.79769e+307 -1.79769e+307
0.154467      -1.79769e+307 -1.79769e+307
0.15479       -1.79769e+307 -1.79769e+307
0.155113      -1.79769e+307 -1.79769e+307
0.155438      -1.79769e+307 -1.79769e+307
0.155764      -1.79769e+307 -1.79769e+307
0.156091      -1.79769e+307 -1.79769e+307
0.156419      -1.79769e+307 -1.79769e+307
0.156749      -1.79769e+307 -1.79769e+307
0.157079      -1.79769e+307 -1.79769e+307
0.157412      -1.79769e+307 -1.79769e+307
0.157747      -1.79769e+307 -1.79769e+307
0.158083      -1.79769e+307 -1.79769e+307
0.158421      -1.79769e+307 -1.79769e+307
0.158762      -1.79769e+307 -1.79769e+307
0.159105      -1.79769e+307 -1.79769e+307
0.159449      -1.79769e+307 -1.79769e+307
0.159796      -1.79769e+307 -1.79769e+307
0.160142      -1.79769e+307 -1.79769e+307
0.160489      -1.79769e+307 -1.79769e+307
0.160835      -1.79769e+307 -1.79769e+307
0.161182      -1.79769e+307 -1.79769e+307
0.161528      -1.79769e+307 -1.79769e+307
0.161875      -1.79769e+307 -1.79769e+307
0.162222      -1.79769e+307 -1.79769e+307
0.162565      -1.79769e+307 -1.79769e+307
0.162909      -1.79769e+307 -1.79769e+307
0.163252      -1.79769e+307 -1.79769e+307
0.163595      -1.79769e+307 -1.79769e+307
0.163939      -1.79769e+307 -1.79769e+307
0.164282      -1.79769e+307 -1.79769e+307
0.164626      -1.79769e+307 -1.79769e+307
0.164969      -1.79769e+307 -1.79769e+307
0.165313      -1.79769e+307 -1.79769e+307
0.165653      -1.79769e+307 -1.79769e+307
0.165993      -1.79769e+307 -1.79769e+307
0.166333      -1.79769e+307 -1.79769e+307
0.166673      -1.79769e+307 -1.79769e+307
0.167013      -1.79769e+307 -1.79769e+307
0.167353      -1.79769e+307 -1.79769e+307
0.167693      -1.79769e+307 -1.79769e+307
0.168033      -1.79769e+307 -1.79769e+307
0.168373      -1.79769e+307 -1.79769e+307
0.168713      -1.79769e+307 -1.79769e+307
0.169053      -1.79769e+307 -1.79769e+307
0.169393      -1.79769e+307 -1.79769e+307
0.169734      -1.79769e+307 -1.79769e+307
0.170074      -1.79769e+307 -1.79769e+307
0.170414      -1.79769e+307 -1.79769e+307
0.170754      -1.79769e+307 -1.79769e+307
0.171094      -1.79769e+307 -1.79769e+307
0.171434      -1.79769e+307 -1.79769e+307
0.171755      -1.79769e+307 -1.79769e+307
0.172052      -1.79769e+307 -1.79769e+307
0.172332      -1.79769e+307 -1.79769e+307
0.172598      -1.79769e+307 -1.79769e+307
0.172856      -1.79769e+307 -1.79769e+307
0.173105      -1.79769e+307 -1.79769e+307
0.173348      -1.79769e+307 -1.79769e+307
0.173583      -1.79769e+307 -1.79769e+307
0.173815      -1.79769e+307 -1.79769e+307
0.174041      -1.79769e+307 -1.79769e+307
0.174263      -1.79769e+307 -1.79769e+307
0.174481      -1.79769e+307 -1.79769e+307
0.174695      -1.79769e+307 -1.79769e+307
0.174908      -1.79769e+307 -1.79769e+307
0.175117      -1.79769e+307 -1.79769e+307
0.175324      -1.79769e+307 -1.79769e+307
0.17553       -1.79769e+307 -1.79769e+307
0.175732      -1.79769e+307 -1.79769e+307
0.175933      -1.79769e+307 -1.79769e+307
0.176132      -1.79769e+307 -1.79769e+307
0.176331      -1.79769e+307 -1.79769e+307
0.176528      -1.79769e+307 -1.79769e+307
0.176723      -1.79769e+307 -1.79769e+307
0.176917      -1.79769e+307 -1.79769e+307
0.177111      -1.79769e+307 -1.79769e+307
0.177304      -1.79769e+307 -1.79769e+307
0.177496      -1.79769e+307 -1.79769e+307
0.177688      -1.79769e+307 -1.79769e+307
0.177879      -1.79769e+307 -1.79769e+307
0.17807       -1.79769e+307 -1.79769e+307
0.178261      -1.79769e+307 -1.79769e+307
0.178451      -1.79769e+307 -1.79769e+307
0.17864       -1.79769e+307 -1.79769e+307
0.178829      -1.79769e+307 -1.79769e+307
0.179018      -1.79769e+307 -1.79769e+307
0.179207      -1.79769e+307 -1.79769e+307
0.179396      -1.79769e+307 -1.79769e+307
0.179585      -1.79769e+307 -1.79769e+307
0.179774      -1.79769e+307 -1.79769e+307
0.179963      -1.79769e+307 -1.79769e+307
0.180152      -1.79769e+307 -1.79769e+307
0.180341      -1.79769e+307 -1.79769e+307
0.18053       -1.79769e+307 -1.79769e+307
0.18072       -1.79769e+307 -1.79769e+307
0.180909      -1.79769e+307 -1.79769e+307
0.181098      -1.79769e+307 -1.79769e+307
0.181287      -1.79769e+307 -1.79769e+307
0.181476      -1.79769e+307 -1.79769e+307
0.181665      -1.79769e+307 -1.79769e+307
0.181854      -1.79769e+307 -1.79769e+307
0.182043      -1.79769e+307 -1.79769e+307
0.182232      -1.79769e+307 -1.79769e+307
0.182421      -1.79769e+307 -1.79769e+307
0.18261       -1.79769e+307 -1.79769e+307
0.182799      -1.79769e+307 -1.79769e+307
0.182988      -1.79769e+307 -1.79769e+307
0.183177      -1.79769e+307 -1.79769e+307
0.183366      -1.79769e+307 -1.79769e+307
0.183555      -1.79769e+307 -1.79769e+307
0.183744      -1.79769e+307 -1.79769e+307
0.183933      -1.79769e+307 -1.79769e+307
0.184124      -1.79769e+307 -1.79769e+307
0.184315      -1.79769e+307 -1.79769e+307
0.184507      -1.79769e+307 -1.79769e+307
0.184698      -1.79769e+307 -1.79769e+307
0.184892      -1.79769e+307 -1.79769e+307
0.185085      -1.79769e+307 -1.79769e+307
0.185279      -1.79769e+307 -1.79769e+307
0.185473      -1.79769e+307 -1.79769e+307